
  ___ ___ ___ _ _ _  
 |   |   |_  | | | | 
 | | | | | . | | | | 
 |__ |  _|___|_____|  22.1.0
 |___|_|             

User:   glebdovzhenko@Glebs.local
Date:   Sat Apr  9 11:29:19 2022
Arch:   x86_64
Pid:    43308
Python: 3.9.12
gpaw:   /Users/glebdovzhenko/Dropbox/PycharmProjects/DFT/venv/lib/python3.9/site-packages/gpaw
_gpaw:  /Users/glebdovzhenko/Dropbox/PycharmProjects/DFT/venv/lib/python3.9/site-packages/
        _gpaw.cpython-39-darwin.so
ase:    /Users/glebdovzhenko/Dropbox/PycharmProjects/DFT/venv/lib/python3.9/site-packages/ase (version 3.22.1)
numpy:  /Users/glebdovzhenko/Dropbox/PycharmProjects/DFT/venv/lib/python3.9/site-packages/numpy (version 1.22.3)
scipy:  /Users/glebdovzhenko/Dropbox/PycharmProjects/DFT/venv/lib/python3.9/site-packages/scipy (version 1.8.0)
libxc:  5.2.2
units:  Angstrom and eV
cores: 1
OpenMP: False
OMP_NUM_THREADS: 1

Input parameters:
  kpts: [6 6 6]

System changes: cell 

Initialize ...

Al-setup:
  name: Aluminium
  id: 0292cae29f5d6237e50f6abdd43a7bdd
  Z: 13.0
  valence: 3
  core: 10
  charge: 0.0
  file: /Users/glebdovzhenko/.gpaw/gpaw-setups-0.9.20000/Al.PBE.gz
  compensation charges: gauss, rc=0.34, lmax=2
  cutoffs: 1.91(filt), 2.36(core),
  valence states:
                energy  radius
    3s(2.00)    -7.753   1.085
    3p(1.00)    -2.712   1.085
    *s          19.459   1.085
    *p          24.499   1.085
    *d           0.000   1.085

  LCAO basis set for Al:
    Name: dzp
    File: /Users/glebdovzhenko/.gpaw/gpaw-setups-0.9.20000/Al.dzp.basis.gz
    Number of radial functions: 5
    Number of spherical harmonics: 13
      l=0, rc=7.8750 Bohr: 3s-sz confined orbital
      l=1, rc=10.4219 Bohr: 3p-sz confined orbital
      l=0, rc=4.6094 Bohr: 3s-dz split-valence wave
      l=1, rc=6.2812 Bohr: 3p-dz split-valence wave
      l=2, rc=10.4219 Bohr: d-type Gaussian polarization

Reference energy: -6603.423265

Spin-paired calculation

Convergence criteria:
 Maximum [total energy] change in last 3 cyles: 0.0005 eV / electron
 Maximum integral of absolute [dens]ity change: 0.0001 electrons / valence electron
 Maximum integral of absolute [eigenst]ate change: 4e-08 eV^2 / valence electron
 Maximum number of scf [iter]ations: 333
 (Square brackets indicate name in SCF output, whereas a 'c' in
 the SCF output indicates the quantity has converged.)

Symmetries present (total): 48

  ( 1  0  0)  ( 1  0  0)  ( 1  0  0)  ( 1  0  0)  ( 1  0 -1)  ( 1  0 -1)
  ( 1  0 -1)  ( 1 -1  0)  ( 0  1  0)  ( 0  0  1)  ( 1  0  0)  ( 1 -1  0)
  ( 1 -1  0)  ( 1  0 -1)  ( 0  0  1)  ( 0  1  0)  ( 1 -1  0)  ( 1  0  0)

  ( 1  0 -1)  ( 1  0 -1)  ( 1 -1  0)  ( 1 -1  0)  ( 1 -1  0)  ( 1 -1  0)
  ( 0  1 -1)  ( 0  0 -1)  ( 1  0  0)  ( 1  0 -1)  ( 0 -1  1)  ( 0 -1  0)
  ( 0  0 -1)  ( 0  1 -1)  ( 1  0 -1)  ( 1  0  0)  ( 0 -1  0)  ( 0 -1  1)

  ( 0  1  0)  ( 0  1  0)  ( 0  1  0)  ( 0  1  0)  ( 0  1 -1)  ( 0  1 -1)
  ( 1  0  0)  ( 0  1 -1)  ( 0  0  1)  (-1  1  0)  ( 1  0 -1)  ( 0  1  0)
  ( 0  0  1)  (-1  1  0)  ( 1  0  0)  ( 0  1 -1)  ( 0  0 -1)  (-1  1  0)

  ( 0  1 -1)  ( 0  1 -1)  ( 0  0  1)  ( 0  0  1)  ( 0  0  1)  ( 0  0  1)
  ( 0  0 -1)  (-1  1  0)  ( 1  0  0)  ( 0  1  0)  ( 0 -1  1)  (-1  0  1)
  ( 1  0 -1)  ( 0  1  0)  ( 0  1  0)  ( 1  0  0)  (-1  0  1)  ( 0 -1  1)

  ( 0  0 -1)  ( 0  0 -1)  ( 0  0 -1)  ( 0  0 -1)  ( 0 -1  1)  ( 0 -1  1)
  ( 1  0 -1)  ( 0  1 -1)  ( 0 -1  0)  (-1  0  0)  ( 1 -1  0)  ( 0  0  1)
  ( 0  1 -1)  ( 1  0 -1)  (-1  0  0)  ( 0 -1  0)  ( 0 -1  0)  (-1  0  1)

  ( 0 -1  1)  ( 0 -1  1)  ( 0 -1  0)  ( 0 -1  0)  ( 0 -1  0)  ( 0 -1  0)
  ( 0 -1  0)  (-1  0  1)  ( 1 -1  0)  ( 0  0 -1)  ( 0 -1  1)  (-1  0  0)
  ( 1 -1  0)  ( 0  0  1)  ( 0 -1  1)  (-1  0  0)  ( 1 -1  0)  ( 0  0 -1)

  (-1  1  0)  (-1  1  0)  (-1  1  0)  (-1  1  0)  (-1  0  1)  (-1  0  1)
  ( 0  1  0)  ( 0  1 -1)  (-1  0  1)  (-1  0  0)  ( 0  0  1)  ( 0 -1  1)
  ( 0  1 -1)  ( 0  1  0)  (-1  0  0)  (-1  0  1)  ( 0 -1  1)  ( 0  0  1)

  (-1  0  1)  (-1  0  1)  (-1  0  0)  (-1  0  0)  (-1  0  0)  (-1  0  0)
  (-1  1  0)  (-1  0  0)  ( 0  0 -1)  ( 0 -1  0)  (-1  1  0)  (-1  0  1)
  (-1  0  0)  (-1  1  0)  ( 0 -1  0)  ( 0  0 -1)  (-1  0  1)  (-1  1  0)
Note: your k-points are not as symmetric as your crystal!

216 k-points: 6 x 6 x 6 Monkhorst-Pack grid
28 k-points in the irreducible part of the Brillouin zone
       k-points in crystal coordinates                weights
   0:     0.08333333    0.08333333   -0.08333333          6/216
   1:     0.08333333    0.08333333    0.08333333          2/216
   2:     0.25000000   -0.08333333   -0.08333333          6/216
   3:     0.25000000    0.08333333   -0.25000000         12/216
   4:     0.25000000    0.08333333   -0.08333333         12/216
   5:     0.25000000    0.08333333    0.08333333          6/216
   6:     0.25000000    0.25000000   -0.25000000          6/216
   7:     0.25000000    0.25000000   -0.08333333          6/216
   8:     0.25000000    0.25000000    0.08333333          6/216
   9:     0.25000000    0.25000000    0.25000000          2/216
          ...
  27:     0.41666667    0.41666667    0.41666667          2/216

Wave functions: Plane wave expansion
  Cutoff energy: 400.000 eV
  Number of coefficients (min, max): 269, 291
  Pulay-stress correction: 0.000000 eV/Ang^3 (de/decut=0.000000)
  Using FFTW library
  ScaLapack parameters: grid=1x1, blocksize=None
  Wavefunction extrapolation:
    Improved wavefunction reuse through dual PAW basis 

Occupation numbers: Fermi-Dirac: width=0.1000 eV
 

Eigensolver
   Davidson(niter=2) 

Densities:
  Coarse grid: 14*14*14 grid
  Fine grid: 28*28*28 grid
  Total Charge: 0.000000 

Density mixing:
  Method: separate
  Backend: pulay
  Linear mixing parameter: 0.05
  Mixing with 5 old densities
  Damping of long wave oscillations: 50 

Hamiltonian:
  XC and Coulomb potentials evaluated on a 28*28*28 grid
  Using the PBE Exchange-Correlation functional
  External potential:
    NoExternalPotential
 

XC parameters: PBE with 2 nearest neighbor stencil

Memory estimate:
  Process memory now: 164.38 MiB
  Calculator: 3.03 MiB
    Density: 1.04 MiB
      Arrays: 0.54 MiB
      Localized functions: 0.29 MiB
      Mixer: 0.21 MiB
    Hamiltonian: 0.36 MiB
      Arrays: 0.36 MiB
      XC: 0.00 MiB
      Poisson: 0.00 MiB
      vbar: 0.01 MiB
    Wavefunctions: 1.62 MiB
      Arrays psit_nG: 0.50 MiB
      Eigensolver: 0.04 MiB
      Projections: 0.02 MiB
      Projectors: 0.83 MiB
      PW-descriptor: 0.23 MiB

Total number of cores used: 1

Number of atoms: 1
Number of atomic orbitals: 13
Number of bands in calculation: 4
Number of valence electrons: 3
Bands to converge: occupied

... initialized

Initializing position-dependent things.

Density initialized from atomic densities
Creating initial wave functions:
  4 bands from LCAO basis set

                
                
                
       Al       
                
                
                
                

Positions:
   0 Al     0.000000    0.000000    0.000000    ( 0.0000,  0.0000,  0.0000)

Unit cell:
           periodic     x           y           z      points  spacing
  1. axis:    yes    0.000000    1.970710    1.970710    14     0.1625
  2. axis:    yes    1.970710    0.000000    1.970710    14     0.1625
  3. axis:    yes    1.970710    1.970710    0.000000    14     0.1625

  Lengths:   2.787005   2.787005   2.787005
  Angles:   60.000000  60.000000  60.000000

Effective grid spacing dv^(1/3) = 0.1774

     iter     time        total  log10-change:
                         energy  eigst   dens
iter:   1 11:29:21    -3.697312
iter:   2 11:29:21    -3.697956  -3.87  -0.94
iter:   3 11:29:21    -3.704705  -2.95  -0.96
iter:   4 11:29:21    -3.704784  -4.50  -2.44
iter:   5 11:29:21    -3.704607c -4.68  -2.41
iter:   6 11:29:22    -3.704778c -4.43  -1.98
iter:   7 11:29:22    -3.704779c -6.04  -3.27
iter:   8 11:29:22    -3.704780c -7.98c -3.73
iter:   9 11:29:22    -3.704780c -7.08  -3.36
iter:  10 11:29:22    -3.704780c -8.85c -4.62c

Converged after 10 iterations.

Dipole moment: (0.000000, 0.000000, 0.000000) |e|*Ang

Energy contributions relative to reference atoms: (reference = -6603.423265)

Kinetic:         +6.481729
Potential:       -3.855632
External:        +0.000000
XC:              -6.315655
Entropy (-ST):   -0.013801
Local:           -0.008320
--------------------------
Free energy:     -3.711680
Extrapolated:    -3.704780

Showing only first 2 kpts
 Kpt  Band  Eigenvalues  Occupancy
  0     0     -3.04129    2.00000
  0     1     16.08707    0.00000
  0     2     18.43774    0.00000

  1     0     -3.56890    2.00000
  1     1     18.34090    0.00000
  1     2     20.47384    0.00000


Fermi level: 7.79454

No gap
System changes: cell 

Initialize ...

Al-setup:
  name: Aluminium
  id: 0292cae29f5d6237e50f6abdd43a7bdd
  Z: 13.0
  valence: 3
  core: 10
  charge: 0.0
  file: /Users/glebdovzhenko/.gpaw/gpaw-setups-0.9.20000/Al.PBE.gz
  compensation charges: gauss, rc=0.34, lmax=2
  cutoffs: 1.91(filt), 2.36(core),
  valence states:
                energy  radius
    3s(2.00)    -7.753   1.085
    3p(1.00)    -2.712   1.085
    *s          19.459   1.085
    *p          24.499   1.085
    *d           0.000   1.085

  LCAO basis set for Al:
    Name: dzp
    File: /Users/glebdovzhenko/.gpaw/gpaw-setups-0.9.20000/Al.dzp.basis.gz
    Number of radial functions: 5
    Number of spherical harmonics: 13
      l=0, rc=7.8750 Bohr: 3s-sz confined orbital
      l=1, rc=10.4219 Bohr: 3p-sz confined orbital
      l=0, rc=4.6094 Bohr: 3s-dz split-valence wave
      l=1, rc=6.2812 Bohr: 3p-dz split-valence wave
      l=2, rc=10.4219 Bohr: d-type Gaussian polarization

Reference energy: -6603.423265

Spin-paired calculation

Convergence criteria:
 Maximum [total energy] change in last 3 cyles: 0.0005 eV / electron
 Maximum integral of absolute [dens]ity change: 0.0001 electrons / valence electron
 Maximum integral of absolute [eigenst]ate change: 4e-08 eV^2 / valence electron
 Maximum number of scf [iter]ations: 333
 (Square brackets indicate name in SCF output, whereas a 'c' in
 the SCF output indicates the quantity has converged.)

Symmetries present (total): 48

  ( 1  0  0)  ( 1  0  0)  ( 1  0  0)  ( 1  0  0)  ( 1  0 -1)  ( 1  0 -1)
  ( 1  0 -1)  ( 1 -1  0)  ( 0  1  0)  ( 0  0  1)  ( 1  0  0)  ( 1 -1  0)
  ( 1 -1  0)  ( 1  0 -1)  ( 0  0  1)  ( 0  1  0)  ( 1 -1  0)  ( 1  0  0)

  ( 1  0 -1)  ( 1  0 -1)  ( 1 -1  0)  ( 1 -1  0)  ( 1 -1  0)  ( 1 -1  0)
  ( 0  1 -1)  ( 0  0 -1)  ( 1  0  0)  ( 1  0 -1)  ( 0 -1  1)  ( 0 -1  0)
  ( 0  0 -1)  ( 0  1 -1)  ( 1  0 -1)  ( 1  0  0)  ( 0 -1  0)  ( 0 -1  1)

  ( 0  1  0)  ( 0  1  0)  ( 0  1  0)  ( 0  1  0)  ( 0  1 -1)  ( 0  1 -1)
  ( 1  0  0)  ( 0  1 -1)  ( 0  0  1)  (-1  1  0)  ( 1  0 -1)  ( 0  1  0)
  ( 0  0  1)  (-1  1  0)  ( 1  0  0)  ( 0  1 -1)  ( 0  0 -1)  (-1  1  0)

  ( 0  1 -1)  ( 0  1 -1)  ( 0  0  1)  ( 0  0  1)  ( 0  0  1)  ( 0  0  1)
  ( 0  0 -1)  (-1  1  0)  ( 1  0  0)  ( 0  1  0)  ( 0 -1  1)  (-1  0  1)
  ( 1  0 -1)  ( 0  1  0)  ( 0  1  0)  ( 1  0  0)  (-1  0  1)  ( 0 -1  1)

  ( 0  0 -1)  ( 0  0 -1)  ( 0  0 -1)  ( 0  0 -1)  ( 0 -1  1)  ( 0 -1  1)
  ( 1  0 -1)  ( 0  1 -1)  ( 0 -1  0)  (-1  0  0)  ( 1 -1  0)  ( 0  0  1)
  ( 0  1 -1)  ( 1  0 -1)  (-1  0  0)  ( 0 -1  0)  ( 0 -1  0)  (-1  0  1)

  ( 0 -1  1)  ( 0 -1  1)  ( 0 -1  0)  ( 0 -1  0)  ( 0 -1  0)  ( 0 -1  0)
  ( 0 -1  0)  (-1  0  1)  ( 1 -1  0)  ( 0  0 -1)  ( 0 -1  1)  (-1  0  0)
  ( 1 -1  0)  ( 0  0  1)  ( 0 -1  1)  (-1  0  0)  ( 1 -1  0)  ( 0  0 -1)

  (-1  1  0)  (-1  1  0)  (-1  1  0)  (-1  1  0)  (-1  0  1)  (-1  0  1)
  ( 0  1  0)  ( 0  1 -1)  (-1  0  1)  (-1  0  0)  ( 0  0  1)  ( 0 -1  1)
  ( 0  1 -1)  ( 0  1  0)  (-1  0  0)  (-1  0  1)  ( 0 -1  1)  ( 0  0  1)

  (-1  0  1)  (-1  0  1)  (-1  0  0)  (-1  0  0)  (-1  0  0)  (-1  0  0)
  (-1  1  0)  (-1  0  0)  ( 0  0 -1)  ( 0 -1  0)  (-1  1  0)  (-1  0  1)
  (-1  0  0)  (-1  1  0)  ( 0 -1  0)  ( 0  0 -1)  (-1  0  1)  (-1  1  0)
Note: your k-points are not as symmetric as your crystal!

216 k-points: 6 x 6 x 6 Monkhorst-Pack grid
28 k-points in the irreducible part of the Brillouin zone
       k-points in crystal coordinates                weights
   0:     0.08333333    0.08333333   -0.08333333          6/216
   1:     0.08333333    0.08333333    0.08333333          2/216
   2:     0.25000000   -0.08333333   -0.08333333          6/216
   3:     0.25000000    0.08333333   -0.25000000         12/216
   4:     0.25000000    0.08333333   -0.08333333         12/216
   5:     0.25000000    0.08333333    0.08333333          6/216
   6:     0.25000000    0.25000000   -0.25000000          6/216
   7:     0.25000000    0.25000000   -0.08333333          6/216
   8:     0.25000000    0.25000000    0.08333333          6/216
   9:     0.25000000    0.25000000    0.25000000          2/216
          ...
  27:     0.41666667    0.41666667    0.41666667          2/216

Wave functions: Plane wave expansion
  Cutoff energy: 400.000 eV
  Number of coefficients (min, max): 263, 282
  Pulay-stress correction: 0.000000 eV/Ang^3 (de/decut=0.000000)
  Using FFTW library
  ScaLapack parameters: grid=1x1, blocksize=None
  Wavefunction extrapolation:
    Improved wavefunction reuse through dual PAW basis 

Occupation numbers: Fermi-Dirac: width=0.1000 eV
 

Eigensolver
   Davidson(niter=2) 

Densities:
  Coarse grid: 14*14*14 grid
  Fine grid: 28*28*28 grid
  Total Charge: 0.000000 

Density mixing:
  Method: separate
  Backend: pulay
  Linear mixing parameter: 0.05
  Mixing with 5 old densities
  Damping of long wave oscillations: 50 

Hamiltonian:
  XC and Coulomb potentials evaluated on a 28*28*28 grid
  Using the PBE Exchange-Correlation functional
  External potential:
    NoExternalPotential
 

XC parameters: PBE with 2 nearest neighbor stencil

Memory estimate:
  Process memory now: 164.38 MiB
  Calculator: 2.98 MiB
    Density: 1.04 MiB
      Arrays: 0.54 MiB
      Localized functions: 0.28 MiB
      Mixer: 0.21 MiB
    Hamiltonian: 0.36 MiB
      Arrays: 0.36 MiB
      XC: 0.00 MiB
      Poisson: 0.00 MiB
      vbar: 0.01 MiB
    Wavefunctions: 1.58 MiB
      Arrays psit_nG: 0.48 MiB
      Eigensolver: 0.04 MiB
      Projections: 0.02 MiB
      Projectors: 0.81 MiB
      PW-descriptor: 0.23 MiB

Total number of cores used: 1

Number of atoms: 1
Number of atomic orbitals: 13
Number of bands in calculation: 4
Number of valence electrons: 3
Bands to converge: occupied

... initialized

Initializing position-dependent things.

Density initialized from atomic densities
Creating initial wave functions:
  4 bands from LCAO basis set

                
                
                
       Al       
                
                
                
                

Positions:
   0 Al     0.000000    0.000000    0.000000    ( 0.0000,  0.0000,  0.0000)

Unit cell:
           periodic     x           y           z      points  spacing
  1. axis:    yes    0.000000    1.951003    1.951003    14     0.1609
  2. axis:    yes    1.951003    0.000000    1.951003    14     0.1609
  3. axis:    yes    1.951003    1.951003    0.000000    14     0.1609

  Lengths:   2.759135   2.759135   2.759135
  Angles:   60.000000  60.000000  60.000000

Effective grid spacing dv^(1/3) = 0.1756

     iter     time        total  log10-change:
                         energy  eigst   dens
iter:   1 11:29:24    -3.669241
iter:   2 11:29:24    -3.670117  -3.89  -0.94
iter:   3 11:29:24    -3.679359  -2.89  -0.96
iter:   4 11:29:24    -3.679461  -4.51  -2.42
iter:   5 11:29:24    -3.678987c -4.23  -2.39
iter:   6 11:29:25    -3.679446c -4.12  -1.77
iter:   7 11:29:25    -3.679447c -6.00  -3.53
iter:   8 11:29:25    -3.679446c -8.29c -3.70
iter:   9 11:29:25    -3.679447c -7.23  -3.48
iter:  10 11:29:25    -3.679447c -8.99c -4.60c

Converged after 10 iterations.

Dipole moment: (0.000000, 0.000000, 0.000000) |e|*Ang

Energy contributions relative to reference atoms: (reference = -6603.423265)

Kinetic:         +7.745690
Potential:       -4.808186
External:        +0.000000
XC:              -6.600674
Entropy (-ST):   -0.013786
Local:           -0.009384
--------------------------
Free energy:     -3.686340
Extrapolated:    -3.679447

Showing only first 2 kpts
 Kpt  Band  Eigenvalues  Occupancy
  0     0     -2.93620    2.00000
  0     1     16.53160    0.00000
  0     2     18.95556    0.00000

  1     0     -3.47433    2.00000
  1     1     18.82372    0.00000
  1     2     20.99019    0.00000


Fermi level: 8.09042

No gap
System changes: cell 

Initialize ...

Al-setup:
  name: Aluminium
  id: 0292cae29f5d6237e50f6abdd43a7bdd
  Z: 13.0
  valence: 3
  core: 10
  charge: 0.0
  file: /Users/glebdovzhenko/.gpaw/gpaw-setups-0.9.20000/Al.PBE.gz
  compensation charges: gauss, rc=0.34, lmax=2
  cutoffs: 1.91(filt), 2.36(core),
  valence states:
                energy  radius
    3s(2.00)    -7.753   1.085
    3p(1.00)    -2.712   1.085
    *s          19.459   1.085
    *p          24.499   1.085
    *d           0.000   1.085

  LCAO basis set for Al:
    Name: dzp
    File: /Users/glebdovzhenko/.gpaw/gpaw-setups-0.9.20000/Al.dzp.basis.gz
    Number of radial functions: 5
    Number of spherical harmonics: 13
      l=0, rc=7.8750 Bohr: 3s-sz confined orbital
      l=1, rc=10.4219 Bohr: 3p-sz confined orbital
      l=0, rc=4.6094 Bohr: 3s-dz split-valence wave
      l=1, rc=6.2812 Bohr: 3p-dz split-valence wave
      l=2, rc=10.4219 Bohr: d-type Gaussian polarization

Reference energy: -6603.423265

Spin-paired calculation

Convergence criteria:
 Maximum [total energy] change in last 3 cyles: 0.0005 eV / electron
 Maximum integral of absolute [dens]ity change: 0.0001 electrons / valence electron
 Maximum integral of absolute [eigenst]ate change: 4e-08 eV^2 / valence electron
 Maximum number of scf [iter]ations: 333
 (Square brackets indicate name in SCF output, whereas a 'c' in
 the SCF output indicates the quantity has converged.)

Symmetries present (total): 48

  ( 1  0  0)  ( 1  0  0)  ( 1  0  0)  ( 1  0  0)  ( 1  0 -1)  ( 1  0 -1)
  ( 1  0 -1)  ( 1 -1  0)  ( 0  1  0)  ( 0  0  1)  ( 1  0  0)  ( 1 -1  0)
  ( 1 -1  0)  ( 1  0 -1)  ( 0  0  1)  ( 0  1  0)  ( 1 -1  0)  ( 1  0  0)

  ( 1  0 -1)  ( 1  0 -1)  ( 1 -1  0)  ( 1 -1  0)  ( 1 -1  0)  ( 1 -1  0)
  ( 0  1 -1)  ( 0  0 -1)  ( 1  0  0)  ( 1  0 -1)  ( 0 -1  1)  ( 0 -1  0)
  ( 0  0 -1)  ( 0  1 -1)  ( 1  0 -1)  ( 1  0  0)  ( 0 -1  0)  ( 0 -1  1)

  ( 0  1  0)  ( 0  1  0)  ( 0  1  0)  ( 0  1  0)  ( 0  1 -1)  ( 0  1 -1)
  ( 1  0  0)  ( 0  1 -1)  ( 0  0  1)  (-1  1  0)  ( 1  0 -1)  ( 0  1  0)
  ( 0  0  1)  (-1  1  0)  ( 1  0  0)  ( 0  1 -1)  ( 0  0 -1)  (-1  1  0)

  ( 0  1 -1)  ( 0  1 -1)  ( 0  0  1)  ( 0  0  1)  ( 0  0  1)  ( 0  0  1)
  ( 0  0 -1)  (-1  1  0)  ( 1  0  0)  ( 0  1  0)  ( 0 -1  1)  (-1  0  1)
  ( 1  0 -1)  ( 0  1  0)  ( 0  1  0)  ( 1  0  0)  (-1  0  1)  ( 0 -1  1)

  ( 0  0 -1)  ( 0  0 -1)  ( 0  0 -1)  ( 0  0 -1)  ( 0 -1  1)  ( 0 -1  1)
  ( 1  0 -1)  ( 0  1 -1)  ( 0 -1  0)  (-1  0  0)  ( 1 -1  0)  ( 0  0  1)
  ( 0  1 -1)  ( 1  0 -1)  (-1  0  0)  ( 0 -1  0)  ( 0 -1  0)  (-1  0  1)

  ( 0 -1  1)  ( 0 -1  1)  ( 0 -1  0)  ( 0 -1  0)  ( 0 -1  0)  ( 0 -1  0)
  ( 0 -1  0)  (-1  0  1)  ( 1 -1  0)  ( 0  0 -1)  ( 0 -1  1)  (-1  0  0)
  ( 1 -1  0)  ( 0  0  1)  ( 0 -1  1)  (-1  0  0)  ( 1 -1  0)  ( 0  0 -1)

  (-1  1  0)  (-1  1  0)  (-1  1  0)  (-1  1  0)  (-1  0  1)  (-1  0  1)
  ( 0  1  0)  ( 0  1 -1)  (-1  0  1)  (-1  0  0)  ( 0  0  1)  ( 0 -1  1)
  ( 0  1 -1)  ( 0  1  0)  (-1  0  0)  (-1  0  1)  ( 0 -1  1)  ( 0  0  1)

  (-1  0  1)  (-1  0  1)  (-1  0  0)  (-1  0  0)  (-1  0  0)  (-1  0  0)
  (-1  1  0)  (-1  0  0)  ( 0  0 -1)  ( 0 -1  0)  (-1  1  0)  (-1  0  1)
  (-1  0  0)  (-1  1  0)  ( 0 -1  0)  ( 0  0 -1)  (-1  0  1)  (-1  1  0)
Note: your k-points are not as symmetric as your crystal!

216 k-points: 6 x 6 x 6 Monkhorst-Pack grid
28 k-points in the irreducible part of the Brillouin zone
       k-points in crystal coordinates                weights
   0:     0.08333333    0.08333333   -0.08333333          6/216
   1:     0.08333333    0.08333333    0.08333333          2/216
   2:     0.25000000   -0.08333333   -0.08333333          6/216
   3:     0.25000000    0.08333333   -0.25000000         12/216
   4:     0.25000000    0.08333333   -0.08333333         12/216
   5:     0.25000000    0.08333333    0.08333333          6/216
   6:     0.25000000    0.25000000   -0.25000000          6/216
   7:     0.25000000    0.25000000   -0.08333333          6/216
   8:     0.25000000    0.25000000    0.08333333          6/216
   9:     0.25000000    0.25000000    0.25000000          2/216
          ...
  27:     0.41666667    0.41666667    0.41666667          2/216

Wave functions: Plane wave expansion
  Cutoff energy: 400.000 eV
  Number of coefficients (min, max): 269, 291
  Pulay-stress correction: 0.000000 eV/Ang^3 (de/decut=0.000000)
  Using FFTW library
  ScaLapack parameters: grid=1x1, blocksize=None
  Wavefunction extrapolation:
    Improved wavefunction reuse through dual PAW basis 

Occupation numbers: Fermi-Dirac: width=0.1000 eV
 

Eigensolver
   Davidson(niter=2) 

Densities:
  Coarse grid: 14*14*14 grid
  Fine grid: 28*28*28 grid
  Total Charge: 0.000000 

Density mixing:
  Method: separate
  Backend: pulay
  Linear mixing parameter: 0.05
  Mixing with 5 old densities
  Damping of long wave oscillations: 50 

Hamiltonian:
  XC and Coulomb potentials evaluated on a 28*28*28 grid
  Using the PBE Exchange-Correlation functional
  External potential:
    NoExternalPotential
 

XC parameters: PBE with 2 nearest neighbor stencil

Memory estimate:
  Process memory now: 164.38 MiB
  Calculator: 3.03 MiB
    Density: 1.04 MiB
      Arrays: 0.54 MiB
      Localized functions: 0.29 MiB
      Mixer: 0.21 MiB
    Hamiltonian: 0.36 MiB
      Arrays: 0.36 MiB
      XC: 0.00 MiB
      Poisson: 0.00 MiB
      vbar: 0.01 MiB
    Wavefunctions: 1.62 MiB
      Arrays psit_nG: 0.50 MiB
      Eigensolver: 0.04 MiB
      Projections: 0.02 MiB
      Projectors: 0.83 MiB
      PW-descriptor: 0.23 MiB

Total number of cores used: 1

Number of atoms: 1
Number of atomic orbitals: 13
Number of bands in calculation: 4
Number of valence electrons: 3
Bands to converge: occupied

... initialized

Initializing position-dependent things.

Density initialized from atomic densities
Creating initial wave functions:
  4 bands from LCAO basis set

                
                
                
       Al       
                
                
                
                

Positions:
   0 Al     0.000000    0.000000    0.000000    ( 0.0000,  0.0000,  0.0000)

Unit cell:
           periodic     x           y           z      points  spacing
  1. axis:    yes    0.000000    1.970513    1.970513    14     0.1625
  2. axis:    yes    1.970513    0.000000    1.970513    14     0.1625
  3. axis:    yes    1.970513    1.970513    0.000000    14     0.1625

  Lengths:   2.786727   2.786727   2.786727
  Angles:   60.000000  60.000000  60.000000

Effective grid spacing dv^(1/3) = 0.1773

     iter     time        total  log10-change:
                         energy  eigst   dens
iter:   1 11:29:27    -3.697079
iter:   2 11:29:27    -3.697725  -3.87  -0.94
iter:   3 11:29:27    -3.704498  -2.95  -0.96
iter:   4 11:29:27    -3.704578  -4.50  -2.44
iter:   5 11:29:27    -3.704399c -4.68  -2.41
iter:   6 11:29:27    -3.704572c -4.43  -1.98
iter:   7 11:29:28    -3.704573c -6.04  -3.27
iter:   8 11:29:28    -3.704574c -7.96c -3.73
iter:   9 11:29:28    -3.704573c -7.08  -3.35
iter:  10 11:29:28    -3.704573c -8.88c -4.62c

Converged after 10 iterations.

Dipole moment: (0.000000, 0.000000, 0.000000) |e|*Ang

Energy contributions relative to reference atoms: (reference = -6603.423265)

Kinetic:         +6.493885
Potential:       -3.864778
External:        +0.000000
XC:              -6.318449
Entropy (-ST):   -0.013801
Local:           -0.008331
--------------------------
Free energy:     -3.711474
Extrapolated:    -3.704573

Showing only first 2 kpts
 Kpt  Band  Eigenvalues  Occupancy
  0     0     -3.04026    2.00000
  0     1     16.09145    0.00000
  0     2     18.44285    0.00000

  1     0     -3.56798    2.00000
  1     1     18.34567    0.00000
  1     2     20.47894    0.00000


Fermi level: 7.79747

No gap
System changes: cell 

Initialize ...

Al-setup:
  name: Aluminium
  id: 0292cae29f5d6237e50f6abdd43a7bdd
  Z: 13.0
  valence: 3
  core: 10
  charge: 0.0
  file: /Users/glebdovzhenko/.gpaw/gpaw-setups-0.9.20000/Al.PBE.gz
  compensation charges: gauss, rc=0.34, lmax=2
  cutoffs: 1.91(filt), 2.36(core),
  valence states:
                energy  radius
    3s(2.00)    -7.753   1.085
    3p(1.00)    -2.712   1.085
    *s          19.459   1.085
    *p          24.499   1.085
    *d           0.000   1.085

  LCAO basis set for Al:
    Name: dzp
    File: /Users/glebdovzhenko/.gpaw/gpaw-setups-0.9.20000/Al.dzp.basis.gz
    Number of radial functions: 5
    Number of spherical harmonics: 13
      l=0, rc=7.8750 Bohr: 3s-sz confined orbital
      l=1, rc=10.4219 Bohr: 3p-sz confined orbital
      l=0, rc=4.6094 Bohr: 3s-dz split-valence wave
      l=1, rc=6.2812 Bohr: 3p-dz split-valence wave
      l=2, rc=10.4219 Bohr: d-type Gaussian polarization

Reference energy: -6603.423265

Spin-paired calculation

Convergence criteria:
 Maximum [total energy] change in last 3 cyles: 0.0005 eV / electron
 Maximum integral of absolute [dens]ity change: 0.0001 electrons / valence electron
 Maximum integral of absolute [eigenst]ate change: 4e-08 eV^2 / valence electron
 Maximum number of scf [iter]ations: 333
 (Square brackets indicate name in SCF output, whereas a 'c' in
 the SCF output indicates the quantity has converged.)

Symmetries present (total): 48

  ( 1  0  0)  ( 1  0  0)  ( 1  0  0)  ( 1  0  0)  ( 1  0 -1)  ( 1  0 -1)
  ( 1  0 -1)  ( 1 -1  0)  ( 0  1  0)  ( 0  0  1)  ( 1  0  0)  ( 1 -1  0)
  ( 1 -1  0)  ( 1  0 -1)  ( 0  0  1)  ( 0  1  0)  ( 1 -1  0)  ( 1  0  0)

  ( 1  0 -1)  ( 1  0 -1)  ( 1 -1  0)  ( 1 -1  0)  ( 1 -1  0)  ( 1 -1  0)
  ( 0  1 -1)  ( 0  0 -1)  ( 1  0  0)  ( 1  0 -1)  ( 0 -1  1)  ( 0 -1  0)
  ( 0  0 -1)  ( 0  1 -1)  ( 1  0 -1)  ( 1  0  0)  ( 0 -1  0)  ( 0 -1  1)

  ( 0  1  0)  ( 0  1  0)  ( 0  1  0)  ( 0  1  0)  ( 0  1 -1)  ( 0  1 -1)
  ( 1  0  0)  ( 0  1 -1)  ( 0  0  1)  (-1  1  0)  ( 1  0 -1)  ( 0  1  0)
  ( 0  0  1)  (-1  1  0)  ( 1  0  0)  ( 0  1 -1)  ( 0  0 -1)  (-1  1  0)

  ( 0  1 -1)  ( 0  1 -1)  ( 0  0  1)  ( 0  0  1)  ( 0  0  1)  ( 0  0  1)
  ( 0  0 -1)  (-1  1  0)  ( 1  0  0)  ( 0  1  0)  ( 0 -1  1)  (-1  0  1)
  ( 1  0 -1)  ( 0  1  0)  ( 0  1  0)  ( 1  0  0)  (-1  0  1)  ( 0 -1  1)

  ( 0  0 -1)  ( 0  0 -1)  ( 0  0 -1)  ( 0  0 -1)  ( 0 -1  1)  ( 0 -1  1)
  ( 1  0 -1)  ( 0  1 -1)  ( 0 -1  0)  (-1  0  0)  ( 1 -1  0)  ( 0  0  1)
  ( 0  1 -1)  ( 1  0 -1)  (-1  0  0)  ( 0 -1  0)  ( 0 -1  0)  (-1  0  1)

  ( 0 -1  1)  ( 0 -1  1)  ( 0 -1  0)  ( 0 -1  0)  ( 0 -1  0)  ( 0 -1  0)
  ( 0 -1  0)  (-1  0  1)  ( 1 -1  0)  ( 0  0 -1)  ( 0 -1  1)  (-1  0  0)
  ( 1 -1  0)  ( 0  0  1)  ( 0 -1  1)  (-1  0  0)  ( 1 -1  0)  ( 0  0 -1)

  (-1  1  0)  (-1  1  0)  (-1  1  0)  (-1  1  0)  (-1  0  1)  (-1  0  1)
  ( 0  1  0)  ( 0  1 -1)  (-1  0  1)  (-1  0  0)  ( 0  0  1)  ( 0 -1  1)
  ( 0  1 -1)  ( 0  1  0)  (-1  0  0)  (-1  0  1)  ( 0 -1  1)  ( 0  0  1)

  (-1  0  1)  (-1  0  1)  (-1  0  0)  (-1  0  0)  (-1  0  0)  (-1  0  0)
  (-1  1  0)  (-1  0  0)  ( 0  0 -1)  ( 0 -1  0)  (-1  1  0)  (-1  0  1)
  (-1  0  0)  (-1  1  0)  ( 0 -1  0)  ( 0  0 -1)  (-1  0  1)  (-1  1  0)
Note: your k-points are not as symmetric as your crystal!

216 k-points: 6 x 6 x 6 Monkhorst-Pack grid
28 k-points in the irreducible part of the Brillouin zone
       k-points in crystal coordinates                weights
   0:     0.08333333    0.08333333   -0.08333333          6/216
   1:     0.08333333    0.08333333    0.08333333          2/216
   2:     0.25000000   -0.08333333   -0.08333333          6/216
   3:     0.25000000    0.08333333   -0.25000000         12/216
   4:     0.25000000    0.08333333   -0.08333333         12/216
   5:     0.25000000    0.08333333    0.08333333          6/216
   6:     0.25000000    0.25000000   -0.25000000          6/216
   7:     0.25000000    0.25000000   -0.08333333          6/216
   8:     0.25000000    0.25000000    0.08333333          6/216
   9:     0.25000000    0.25000000    0.25000000          2/216
          ...
  27:     0.41666667    0.41666667    0.41666667          2/216

Wave functions: Plane wave expansion
  Cutoff energy: 400.000 eV
  Number of coefficients (min, max): 288, 303
  Pulay-stress correction: 0.000000 eV/Ang^3 (de/decut=0.000000)
  Using FFTW library
  ScaLapack parameters: grid=1x1, blocksize=None
  Wavefunction extrapolation:
    Improved wavefunction reuse through dual PAW basis 

Occupation numbers: Fermi-Dirac: width=0.1000 eV
 

Eigensolver
   Davidson(niter=2) 

Densities:
  Coarse grid: 14*14*14 grid
  Fine grid: 28*28*28 grid
  Total Charge: 0.000000 

Density mixing:
  Method: separate
  Backend: pulay
  Linear mixing parameter: 0.05
  Mixing with 5 old densities
  Damping of long wave oscillations: 50 

Hamiltonian:
  XC and Coulomb potentials evaluated on a 28*28*28 grid
  Using the PBE Exchange-Correlation functional
  External potential:
    NoExternalPotential
 

XC parameters: PBE with 2 nearest neighbor stencil

Memory estimate:
  Process memory now: 166.14 MiB
  Calculator: 3.13 MiB
    Density: 1.06 MiB
      Arrays: 0.54 MiB
      Localized functions: 0.31 MiB
      Mixer: 0.21 MiB
    Hamiltonian: 0.36 MiB
      Arrays: 0.36 MiB
      XC: 0.00 MiB
      Poisson: 0.00 MiB
      vbar: 0.01 MiB
    Wavefunctions: 1.70 MiB
      Arrays psit_nG: 0.52 MiB
      Eigensolver: 0.04 MiB
      Projections: 0.02 MiB
      Projectors: 0.88 MiB
      PW-descriptor: 0.23 MiB

Total number of cores used: 1

Number of atoms: 1
Number of atomic orbitals: 13
Number of bands in calculation: 4
Number of valence electrons: 3
Bands to converge: occupied

... initialized

Initializing position-dependent things.

Density initialized from atomic densities
Creating initial wave functions:
  4 bands from LCAO basis set

                
                
                
       Al       
                
                
                
                

Positions:
   0 Al     0.000000    0.000000    0.000000    ( 0.0000,  0.0000,  0.0000)

Unit cell:
           periodic     x           y           z      points  spacing
  1. axis:    yes    0.000000    2.009923    2.009923    14     0.1658
  2. axis:    yes    2.009923    0.000000    2.009923    14     0.1658
  3. axis:    yes    2.009923    2.009923    0.000000    14     0.1658

  Lengths:   2.842461   2.842461   2.842461
  Angles:   60.000000  60.000000  60.000000

Effective grid spacing dv^(1/3) = 0.1809

     iter     time        total  log10-change:
                         energy  eigst   dens
iter:   1 11:29:30    -3.726411
iter:   2 11:29:30    -3.726621  -3.84  -0.93
iter:   3 11:29:30    -3.728825  -3.09  -0.95
iter:   4 11:29:30    -3.728845  -4.63  -2.46
iter:   5 11:29:30    -3.728843c -6.23  -2.49
iter:   6 11:29:30    -3.728861c -5.17  -2.46
iter:   7 11:29:30    -3.728862c -6.74  -3.27
iter:   8 11:29:31    -3.728865c -7.23  -3.36
iter:   9 11:29:31    -3.728862c -7.29  -3.12
iter:  10 11:29:31    -3.728862c -8.35c -3.98
iter:  11 11:29:31    -3.728863c -8.15c -3.83
iter:  12 11:29:31    -3.728863c -10.39c -4.77c

Converged after 12 iterations.

Dipole moment: (0.000000, 0.000000, 0.000000) |e|*Ang

Energy contributions relative to reference atoms: (reference = -6603.423265)

Kinetic:         +4.231369
Potential:       -2.166227
External:        +0.000000
XC:              -5.780315
Entropy (-ST):   -0.014067
Local:           -0.006656
--------------------------
Free energy:     -3.735896
Extrapolated:    -3.728863

Showing only first 2 kpts
 Kpt  Band  Eigenvalues  Occupancy
  0     0     -3.23667    2.00000
  0     1     15.23632    0.00000
  0     2     17.44890    0.00000

  1     0     -3.74420    2.00000
  1     1     17.41542    0.00000
  1     2     19.48074    0.00000


Fermi level: 7.22576

No gap
