
  ___ ___ ___ _ _ _  
 |   |   |_  | | | | 
 | | | | | . | | | | 
 |__ |  _|___|_____|  22.1.0
 |___|_|             

User:   glebdovzhenko@Glebs.local
Date:   Sat Apr  9 11:29:11 2022
Arch:   x86_64
Pid:    43308
Python: 3.9.12
gpaw:   /Users/glebdovzhenko/Dropbox/PycharmProjects/DFT/venv/lib/python3.9/site-packages/gpaw
_gpaw:  /Users/glebdovzhenko/Dropbox/PycharmProjects/DFT/venv/lib/python3.9/site-packages/
        _gpaw.cpython-39-darwin.so
ase:    /Users/glebdovzhenko/Dropbox/PycharmProjects/DFT/venv/lib/python3.9/site-packages/ase (version 3.22.1)
numpy:  /Users/glebdovzhenko/Dropbox/PycharmProjects/DFT/venv/lib/python3.9/site-packages/numpy (version 1.22.3)
scipy:  /Users/glebdovzhenko/Dropbox/PycharmProjects/DFT/venv/lib/python3.9/site-packages/scipy (version 1.8.0)
libxc:  5.2.2
units:  Angstrom and eV
cores: 1
OpenMP: False
OMP_NUM_THREADS: 1

Input parameters:
  kpts: [5 5 5]

System changes: cell 

Initialize ...

Al-setup:
  name: Aluminium
  id: 0292cae29f5d6237e50f6abdd43a7bdd
  Z: 13.0
  valence: 3
  core: 10
  charge: 0.0
  file: /Users/glebdovzhenko/.gpaw/gpaw-setups-0.9.20000/Al.PBE.gz
  compensation charges: gauss, rc=0.34, lmax=2
  cutoffs: 1.91(filt), 2.36(core),
  valence states:
                energy  radius
    3s(2.00)    -7.753   1.085
    3p(1.00)    -2.712   1.085
    *s          19.459   1.085
    *p          24.499   1.085
    *d           0.000   1.085

  LCAO basis set for Al:
    Name: dzp
    File: /Users/glebdovzhenko/.gpaw/gpaw-setups-0.9.20000/Al.dzp.basis.gz
    Number of radial functions: 5
    Number of spherical harmonics: 13
      l=0, rc=7.8750 Bohr: 3s-sz confined orbital
      l=1, rc=10.4219 Bohr: 3p-sz confined orbital
      l=0, rc=4.6094 Bohr: 3s-dz split-valence wave
      l=1, rc=6.2812 Bohr: 3p-dz split-valence wave
      l=2, rc=10.4219 Bohr: d-type Gaussian polarization

Reference energy: -6603.423265

Spin-paired calculation

Convergence criteria:
 Maximum [total energy] change in last 3 cyles: 0.0005 eV / electron
 Maximum integral of absolute [dens]ity change: 0.0001 electrons / valence electron
 Maximum integral of absolute [eigenst]ate change: 4e-08 eV^2 / valence electron
 Maximum number of scf [iter]ations: 333
 (Square brackets indicate name in SCF output, whereas a 'c' in
 the SCF output indicates the quantity has converged.)

Symmetries present (total): 48

  ( 1  0  0)  ( 1  0  0)  ( 1  0  0)  ( 1  0  0)  ( 1  0 -1)  ( 1  0 -1)
  ( 1  0 -1)  ( 1 -1  0)  ( 0  1  0)  ( 0  0  1)  ( 1  0  0)  ( 1 -1  0)
  ( 1 -1  0)  ( 1  0 -1)  ( 0  0  1)  ( 0  1  0)  ( 1 -1  0)  ( 1  0  0)

  ( 1  0 -1)  ( 1  0 -1)  ( 1 -1  0)  ( 1 -1  0)  ( 1 -1  0)  ( 1 -1  0)
  ( 0  1 -1)  ( 0  0 -1)  ( 1  0  0)  ( 1  0 -1)  ( 0 -1  1)  ( 0 -1  0)
  ( 0  0 -1)  ( 0  1 -1)  ( 1  0 -1)  ( 1  0  0)  ( 0 -1  0)  ( 0 -1  1)

  ( 0  1  0)  ( 0  1  0)  ( 0  1  0)  ( 0  1  0)  ( 0  1 -1)  ( 0  1 -1)
  ( 1  0  0)  ( 0  1 -1)  ( 0  0  1)  (-1  1  0)  ( 1  0 -1)  ( 0  1  0)
  ( 0  0  1)  (-1  1  0)  ( 1  0  0)  ( 0  1 -1)  ( 0  0 -1)  (-1  1  0)

  ( 0  1 -1)  ( 0  1 -1)  ( 0  0  1)  ( 0  0  1)  ( 0  0  1)  ( 0  0  1)
  ( 0  0 -1)  (-1  1  0)  ( 1  0  0)  ( 0  1  0)  ( 0 -1  1)  (-1  0  1)
  ( 1  0 -1)  ( 0  1  0)  ( 0  1  0)  ( 1  0  0)  (-1  0  1)  ( 0 -1  1)

  ( 0  0 -1)  ( 0  0 -1)  ( 0  0 -1)  ( 0  0 -1)  ( 0 -1  1)  ( 0 -1  1)
  ( 1  0 -1)  ( 0  1 -1)  ( 0 -1  0)  (-1  0  0)  ( 1 -1  0)  ( 0  0  1)
  ( 0  1 -1)  ( 1  0 -1)  (-1  0  0)  ( 0 -1  0)  ( 0 -1  0)  (-1  0  1)

  ( 0 -1  1)  ( 0 -1  1)  ( 0 -1  0)  ( 0 -1  0)  ( 0 -1  0)  ( 0 -1  0)
  ( 0 -1  0)  (-1  0  1)  ( 1 -1  0)  ( 0  0 -1)  ( 0 -1  1)  (-1  0  0)
  ( 1 -1  0)  ( 0  0  1)  ( 0 -1  1)  (-1  0  0)  ( 1 -1  0)  ( 0  0 -1)

  (-1  1  0)  (-1  1  0)  (-1  1  0)  (-1  1  0)  (-1  0  1)  (-1  0  1)
  ( 0  1  0)  ( 0  1 -1)  (-1  0  1)  (-1  0  0)  ( 0  0  1)  ( 0 -1  1)
  ( 0  1 -1)  ( 0  1  0)  (-1  0  0)  (-1  0  1)  ( 0 -1  1)  ( 0  0  1)

  (-1  0  1)  (-1  0  1)  (-1  0  0)  (-1  0  0)  (-1  0  0)  (-1  0  0)
  (-1  1  0)  (-1  0  0)  ( 0  0 -1)  ( 0 -1  0)  (-1  1  0)  (-1  0  1)
  (-1  0  0)  (-1  1  0)  ( 0 -1  0)  ( 0  0 -1)  (-1  0  1)  (-1  1  0)

125 k-points: 5 x 5 x 5 Monkhorst-Pack grid
10 k-points in the irreducible part of the Brillouin zone
       k-points in crystal coordinates                weights
   0:     0.00000000    0.00000000    0.00000000          1/125
   1:     0.20000000    0.20000000    0.00000000          6/125
   2:     0.20000000    0.20000000    0.20000000          8/125
   3:     0.40000000    0.20000000   -0.20000000         24/125
   4:     0.40000000    0.20000000    0.20000000         12/125
   5:     0.40000000    0.40000000   -0.40000000         24/125
   6:     0.40000000    0.40000000   -0.20000000         12/125
   7:     0.40000000    0.40000000    0.00000000          6/125
   8:     0.40000000    0.40000000    0.20000000         24/125
   9:     0.40000000    0.40000000    0.40000000          8/125

Wave functions: Plane wave expansion
  Cutoff energy: 400.000 eV
  Number of coefficients (min, max): 269, 291
  Pulay-stress correction: 0.000000 eV/Ang^3 (de/decut=0.000000)
  Using FFTW library
  ScaLapack parameters: grid=1x1, blocksize=None
  Wavefunction extrapolation:
    Improved wavefunction reuse through dual PAW basis 

Occupation numbers: Fermi-Dirac: width=0.1000 eV
 

Eigensolver
   Davidson(niter=2) 

Densities:
  Coarse grid: 14*14*14 grid
  Fine grid: 28*28*28 grid
  Total Charge: 0.000000 

Density mixing:
  Method: separate
  Backend: pulay
  Linear mixing parameter: 0.05
  Mixing with 5 old densities
  Damping of long wave oscillations: 50 

Hamiltonian:
  XC and Coulomb potentials evaluated on a 28*28*28 grid
  Using the PBE Exchange-Correlation functional
  External potential:
    NoExternalPotential
 

XC parameters: PBE with 2 nearest neighbor stencil

Memory estimate:
  Process memory now: 159.45 MiB
  Calculator: 2.08 MiB
    Density: 1.04 MiB
      Arrays: 0.54 MiB
      Localized functions: 0.29 MiB
      Mixer: 0.21 MiB
    Hamiltonian: 0.36 MiB
      Arrays: 0.36 MiB
      XC: 0.00 MiB
      Poisson: 0.00 MiB
      vbar: 0.01 MiB
    Wavefunctions: 0.68 MiB
      Arrays psit_nG: 0.18 MiB
      Eigensolver: 0.04 MiB
      Projections: 0.01 MiB
      Projectors: 0.30 MiB
      PW-descriptor: 0.15 MiB

Total number of cores used: 1

Number of atoms: 1
Number of atomic orbitals: 13
Number of bands in calculation: 4
Number of valence electrons: 3
Bands to converge: occupied

... initialized

Initializing position-dependent things.

Density initialized from atomic densities
Creating initial wave functions:
  4 bands from LCAO basis set

                
                
                
       Al       
                
                
                
                

Positions:
   0 Al     0.000000    0.000000    0.000000    ( 0.0000,  0.0000,  0.0000)

Unit cell:
           periodic     x           y           z      points  spacing
  1. axis:    yes    0.000000    1.971696    1.971696    14     0.1626
  2. axis:    yes    1.971696    0.000000    1.971696    14     0.1626
  3. axis:    yes    1.971696    1.971696    0.000000    14     0.1626

  Lengths:   2.788399   2.788399   2.788399
  Angles:   60.000000  60.000000  60.000000

Effective grid spacing dv^(1/3) = 0.1774

     iter     time        total  log10-change:
                         energy  eigst   dens
iter:   1 11:29:13    -3.633401
iter:   2 11:29:13    -3.634090  -3.52  -0.95
iter:   3 11:29:13    -3.640489  -2.89  -0.98
iter:   4 11:29:13    -3.640527  -4.52  -2.50
iter:   5 11:29:13    -3.640106c -4.65  -2.47
iter:   6 11:29:13    -3.640549c -4.40  -2.00
iter:   7 11:29:13    -3.640549c -6.34  -3.47
iter:   8 11:29:13    -3.640548c -7.64c -3.73
iter:   9 11:29:13    -3.640551c -7.06  -3.32
iter:  10 11:29:13    -3.640551c -8.81c -4.71c

Converged after 10 iterations.

Dipole moment: (-0.000000, -0.000000, -0.000000) |e|*Ang

Energy contributions relative to reference atoms: (reference = -6603.423265)

Kinetic:         +6.922522
Potential:       -4.218449
External:        +0.000000
XC:              -6.318337
Entropy (-ST):   -0.035305
Local:           -0.008634
--------------------------
Free energy:     -3.658203
Extrapolated:    -3.640551

Showing only first 2 kpts
 Kpt  Band  Eigenvalues  Occupancy
  0     0     -3.77130    2.00000
  0     1     20.93253    0.00000
  0     2     20.93253    0.00000

  1     0     -2.25667    2.00000
  1     1     16.51681    0.00000
  1     2     16.70589    0.00000


Fermi level: 8.19772

No gap
System changes: cell 

Initialize ...

Al-setup:
  name: Aluminium
  id: 0292cae29f5d6237e50f6abdd43a7bdd
  Z: 13.0
  valence: 3
  core: 10
  charge: 0.0
  file: /Users/glebdovzhenko/.gpaw/gpaw-setups-0.9.20000/Al.PBE.gz
  compensation charges: gauss, rc=0.34, lmax=2
  cutoffs: 1.91(filt), 2.36(core),
  valence states:
                energy  radius
    3s(2.00)    -7.753   1.085
    3p(1.00)    -2.712   1.085
    *s          19.459   1.085
    *p          24.499   1.085
    *d           0.000   1.085

  LCAO basis set for Al:
    Name: dzp
    File: /Users/glebdovzhenko/.gpaw/gpaw-setups-0.9.20000/Al.dzp.basis.gz
    Number of radial functions: 5
    Number of spherical harmonics: 13
      l=0, rc=7.8750 Bohr: 3s-sz confined orbital
      l=1, rc=10.4219 Bohr: 3p-sz confined orbital
      l=0, rc=4.6094 Bohr: 3s-dz split-valence wave
      l=1, rc=6.2812 Bohr: 3p-dz split-valence wave
      l=2, rc=10.4219 Bohr: d-type Gaussian polarization

Reference energy: -6603.423265

Spin-paired calculation

Convergence criteria:
 Maximum [total energy] change in last 3 cyles: 0.0005 eV / electron
 Maximum integral of absolute [dens]ity change: 0.0001 electrons / valence electron
 Maximum integral of absolute [eigenst]ate change: 4e-08 eV^2 / valence electron
 Maximum number of scf [iter]ations: 333
 (Square brackets indicate name in SCF output, whereas a 'c' in
 the SCF output indicates the quantity has converged.)

Symmetries present (total): 48

  ( 1  0  0)  ( 1  0  0)  ( 1  0  0)  ( 1  0  0)  ( 1  0 -1)  ( 1  0 -1)
  ( 1  0 -1)  ( 1 -1  0)  ( 0  1  0)  ( 0  0  1)  ( 1  0  0)  ( 1 -1  0)
  ( 1 -1  0)  ( 1  0 -1)  ( 0  0  1)  ( 0  1  0)  ( 1 -1  0)  ( 1  0  0)

  ( 1  0 -1)  ( 1  0 -1)  ( 1 -1  0)  ( 1 -1  0)  ( 1 -1  0)  ( 1 -1  0)
  ( 0  1 -1)  ( 0  0 -1)  ( 1  0  0)  ( 1  0 -1)  ( 0 -1  1)  ( 0 -1  0)
  ( 0  0 -1)  ( 0  1 -1)  ( 1  0 -1)  ( 1  0  0)  ( 0 -1  0)  ( 0 -1  1)

  ( 0  1  0)  ( 0  1  0)  ( 0  1  0)  ( 0  1  0)  ( 0  1 -1)  ( 0  1 -1)
  ( 1  0  0)  ( 0  1 -1)  ( 0  0  1)  (-1  1  0)  ( 1  0 -1)  ( 0  1  0)
  ( 0  0  1)  (-1  1  0)  ( 1  0  0)  ( 0  1 -1)  ( 0  0 -1)  (-1  1  0)

  ( 0  1 -1)  ( 0  1 -1)  ( 0  0  1)  ( 0  0  1)  ( 0  0  1)  ( 0  0  1)
  ( 0  0 -1)  (-1  1  0)  ( 1  0  0)  ( 0  1  0)  ( 0 -1  1)  (-1  0  1)
  ( 1  0 -1)  ( 0  1  0)  ( 0  1  0)  ( 1  0  0)  (-1  0  1)  ( 0 -1  1)

  ( 0  0 -1)  ( 0  0 -1)  ( 0  0 -1)  ( 0  0 -1)  ( 0 -1  1)  ( 0 -1  1)
  ( 1  0 -1)  ( 0  1 -1)  ( 0 -1  0)  (-1  0  0)  ( 1 -1  0)  ( 0  0  1)
  ( 0  1 -1)  ( 1  0 -1)  (-1  0  0)  ( 0 -1  0)  ( 0 -1  0)  (-1  0  1)

  ( 0 -1  1)  ( 0 -1  1)  ( 0 -1  0)  ( 0 -1  0)  ( 0 -1  0)  ( 0 -1  0)
  ( 0 -1  0)  (-1  0  1)  ( 1 -1  0)  ( 0  0 -1)  ( 0 -1  1)  (-1  0  0)
  ( 1 -1  0)  ( 0  0  1)  ( 0 -1  1)  (-1  0  0)  ( 1 -1  0)  ( 0  0 -1)

  (-1  1  0)  (-1  1  0)  (-1  1  0)  (-1  1  0)  (-1  0  1)  (-1  0  1)
  ( 0  1  0)  ( 0  1 -1)  (-1  0  1)  (-1  0  0)  ( 0  0  1)  ( 0 -1  1)
  ( 0  1 -1)  ( 0  1  0)  (-1  0  0)  (-1  0  1)  ( 0 -1  1)  ( 0  0  1)

  (-1  0  1)  (-1  0  1)  (-1  0  0)  (-1  0  0)  (-1  0  0)  (-1  0  0)
  (-1  1  0)  (-1  0  0)  ( 0  0 -1)  ( 0 -1  0)  (-1  1  0)  (-1  0  1)
  (-1  0  0)  (-1  1  0)  ( 0 -1  0)  ( 0  0 -1)  (-1  0  1)  (-1  1  0)

125 k-points: 5 x 5 x 5 Monkhorst-Pack grid
10 k-points in the irreducible part of the Brillouin zone
       k-points in crystal coordinates                weights
   0:     0.00000000    0.00000000    0.00000000          1/125
   1:     0.20000000    0.20000000    0.00000000          6/125
   2:     0.20000000    0.20000000    0.20000000          8/125
   3:     0.40000000    0.20000000   -0.20000000         24/125
   4:     0.40000000    0.20000000    0.20000000         12/125
   5:     0.40000000    0.40000000   -0.40000000         24/125
   6:     0.40000000    0.40000000   -0.20000000         12/125
   7:     0.40000000    0.40000000    0.00000000          6/125
   8:     0.40000000    0.40000000    0.20000000         24/125
   9:     0.40000000    0.40000000    0.40000000          8/125

Wave functions: Plane wave expansion
  Cutoff energy: 400.000 eV
  Number of coefficients (min, max): 264, 283
  Pulay-stress correction: 0.000000 eV/Ang^3 (de/decut=0.000000)
  Using FFTW library
  ScaLapack parameters: grid=1x1, blocksize=None
  Wavefunction extrapolation:
    Improved wavefunction reuse through dual PAW basis 

Occupation numbers: Fermi-Dirac: width=0.1000 eV
 

Eigensolver
   Davidson(niter=2) 

Densities:
  Coarse grid: 14*14*14 grid
  Fine grid: 28*28*28 grid
  Total Charge: 0.000000 

Density mixing:
  Method: separate
  Backend: pulay
  Linear mixing parameter: 0.05
  Mixing with 5 old densities
  Damping of long wave oscillations: 50 

Hamiltonian:
  XC and Coulomb potentials evaluated on a 28*28*28 grid
  Using the PBE Exchange-Correlation functional
  External potential:
    NoExternalPotential
 

XC parameters: PBE with 2 nearest neighbor stencil

Memory estimate:
  Process memory now: 160.78 MiB
  Calculator: 2.07 MiB
    Density: 1.04 MiB
      Arrays: 0.54 MiB
      Localized functions: 0.29 MiB
      Mixer: 0.21 MiB
    Hamiltonian: 0.36 MiB
      Arrays: 0.36 MiB
      XC: 0.00 MiB
      Poisson: 0.00 MiB
      vbar: 0.01 MiB
    Wavefunctions: 0.66 MiB
      Arrays psit_nG: 0.17 MiB
      Eigensolver: 0.04 MiB
      Projections: 0.01 MiB
      Projectors: 0.29 MiB
      PW-descriptor: 0.15 MiB

Total number of cores used: 1

Number of atoms: 1
Number of atomic orbitals: 13
Number of bands in calculation: 4
Number of valence electrons: 3
Bands to converge: occupied

... initialized

Initializing position-dependent things.

Density initialized from atomic densities
Creating initial wave functions:
  4 bands from LCAO basis set

                
                
                
       Al       
                
                
                
                

Positions:
   0 Al     0.000000    0.000000    0.000000    ( 0.0000,  0.0000,  0.0000)

Unit cell:
           periodic     x           y           z      points  spacing
  1. axis:    yes    0.000000    1.951979    1.951979    14     0.1610
  2. axis:    yes    1.951979    0.000000    1.951979    14     0.1610
  3. axis:    yes    1.951979    1.951979    0.000000    14     0.1610

  Lengths:   2.760515   2.760515   2.760515
  Angles:   60.000000  60.000000  60.000000

Effective grid spacing dv^(1/3) = 0.1757

     iter     time        total  log10-change:
                         energy  eigst   dens
iter:   1 11:29:15    -3.599887
iter:   2 11:29:15    -3.600804  -3.55  -0.96
iter:   3 11:29:15    -3.609597  -2.83  -0.98
iter:   4 11:29:15    -3.609665  -4.48  -2.48
iter:   5 11:29:15    -3.609003c -4.48  -2.44
iter:   6 11:29:15    -3.609679c -4.29  -1.89
iter:   7 11:29:15    -3.609679c -6.42  -3.84
iter:   8 11:29:15    -3.609678c -8.36c -3.71
iter:   9 11:29:15    -3.609680c -7.28  -3.48
iter:  10 11:29:15    -3.609680c -9.02c -4.70c

Converged after 10 iterations.

Dipole moment: (-0.000000, 0.000000, 0.000000) |e|*Ang

Energy contributions relative to reference atoms: (reference = -6603.423265)

Kinetic:         +8.085874
Potential:       -5.069596
External:        +0.000000
XC:              -6.597459
Entropy (-ST):   -0.037685
Local:           -0.009657
--------------------------
Free energy:     -3.628523
Extrapolated:    -3.609680

Showing only first 2 kpts
 Kpt  Band  Eigenvalues  Occupancy
  0     0     -3.68107    2.00000
  0     1     21.41813    0.00000
  0     2     21.41813    0.00000

  1     0     -2.13645    2.00000
  1     1     16.90257    0.00000
  1     2     17.20424    0.00000


Fermi level: 8.50712

No gap
System changes: cell 

Initialize ...

Al-setup:
  name: Aluminium
  id: 0292cae29f5d6237e50f6abdd43a7bdd
  Z: 13.0
  valence: 3
  core: 10
  charge: 0.0
  file: /Users/glebdovzhenko/.gpaw/gpaw-setups-0.9.20000/Al.PBE.gz
  compensation charges: gauss, rc=0.34, lmax=2
  cutoffs: 1.91(filt), 2.36(core),
  valence states:
                energy  radius
    3s(2.00)    -7.753   1.085
    3p(1.00)    -2.712   1.085
    *s          19.459   1.085
    *p          24.499   1.085
    *d           0.000   1.085

  LCAO basis set for Al:
    Name: dzp
    File: /Users/glebdovzhenko/.gpaw/gpaw-setups-0.9.20000/Al.dzp.basis.gz
    Number of radial functions: 5
    Number of spherical harmonics: 13
      l=0, rc=7.8750 Bohr: 3s-sz confined orbital
      l=1, rc=10.4219 Bohr: 3p-sz confined orbital
      l=0, rc=4.6094 Bohr: 3s-dz split-valence wave
      l=1, rc=6.2812 Bohr: 3p-dz split-valence wave
      l=2, rc=10.4219 Bohr: d-type Gaussian polarization

Reference energy: -6603.423265

Spin-paired calculation

Convergence criteria:
 Maximum [total energy] change in last 3 cyles: 0.0005 eV / electron
 Maximum integral of absolute [dens]ity change: 0.0001 electrons / valence electron
 Maximum integral of absolute [eigenst]ate change: 4e-08 eV^2 / valence electron
 Maximum number of scf [iter]ations: 333
 (Square brackets indicate name in SCF output, whereas a 'c' in
 the SCF output indicates the quantity has converged.)

Symmetries present (total): 48

  ( 1  0  0)  ( 1  0  0)  ( 1  0  0)  ( 1  0  0)  ( 1  0 -1)  ( 1  0 -1)
  ( 1  0 -1)  ( 1 -1  0)  ( 0  1  0)  ( 0  0  1)  ( 1  0  0)  ( 1 -1  0)
  ( 1 -1  0)  ( 1  0 -1)  ( 0  0  1)  ( 0  1  0)  ( 1 -1  0)  ( 1  0  0)

  ( 1  0 -1)  ( 1  0 -1)  ( 1 -1  0)  ( 1 -1  0)  ( 1 -1  0)  ( 1 -1  0)
  ( 0  1 -1)  ( 0  0 -1)  ( 1  0  0)  ( 1  0 -1)  ( 0 -1  1)  ( 0 -1  0)
  ( 0  0 -1)  ( 0  1 -1)  ( 1  0 -1)  ( 1  0  0)  ( 0 -1  0)  ( 0 -1  1)

  ( 0  1  0)  ( 0  1  0)  ( 0  1  0)  ( 0  1  0)  ( 0  1 -1)  ( 0  1 -1)
  ( 1  0  0)  ( 0  1 -1)  ( 0  0  1)  (-1  1  0)  ( 1  0 -1)  ( 0  1  0)
  ( 0  0  1)  (-1  1  0)  ( 1  0  0)  ( 0  1 -1)  ( 0  0 -1)  (-1  1  0)

  ( 0  1 -1)  ( 0  1 -1)  ( 0  0  1)  ( 0  0  1)  ( 0  0  1)  ( 0  0  1)
  ( 0  0 -1)  (-1  1  0)  ( 1  0  0)  ( 0  1  0)  ( 0 -1  1)  (-1  0  1)
  ( 1  0 -1)  ( 0  1  0)  ( 0  1  0)  ( 1  0  0)  (-1  0  1)  ( 0 -1  1)

  ( 0  0 -1)  ( 0  0 -1)  ( 0  0 -1)  ( 0  0 -1)  ( 0 -1  1)  ( 0 -1  1)
  ( 1  0 -1)  ( 0  1 -1)  ( 0 -1  0)  (-1  0  0)  ( 1 -1  0)  ( 0  0  1)
  ( 0  1 -1)  ( 1  0 -1)  (-1  0  0)  ( 0 -1  0)  ( 0 -1  0)  (-1  0  1)

  ( 0 -1  1)  ( 0 -1  1)  ( 0 -1  0)  ( 0 -1  0)  ( 0 -1  0)  ( 0 -1  0)
  ( 0 -1  0)  (-1  0  1)  ( 1 -1  0)  ( 0  0 -1)  ( 0 -1  1)  (-1  0  0)
  ( 1 -1  0)  ( 0  0  1)  ( 0 -1  1)  (-1  0  0)  ( 1 -1  0)  ( 0  0 -1)

  (-1  1  0)  (-1  1  0)  (-1  1  0)  (-1  1  0)  (-1  0  1)  (-1  0  1)
  ( 0  1  0)  ( 0  1 -1)  (-1  0  1)  (-1  0  0)  ( 0  0  1)  ( 0 -1  1)
  ( 0  1 -1)  ( 0  1  0)  (-1  0  0)  (-1  0  1)  ( 0 -1  1)  ( 0  0  1)

  (-1  0  1)  (-1  0  1)  (-1  0  0)  (-1  0  0)  (-1  0  0)  (-1  0  0)
  (-1  1  0)  (-1  0  0)  ( 0  0 -1)  ( 0 -1  0)  (-1  1  0)  (-1  0  1)
  (-1  0  0)  (-1  1  0)  ( 0 -1  0)  ( 0  0 -1)  (-1  0  1)  (-1  1  0)

125 k-points: 5 x 5 x 5 Monkhorst-Pack grid
10 k-points in the irreducible part of the Brillouin zone
       k-points in crystal coordinates                weights
   0:     0.00000000    0.00000000    0.00000000          1/125
   1:     0.20000000    0.20000000    0.00000000          6/125
   2:     0.20000000    0.20000000    0.20000000          8/125
   3:     0.40000000    0.20000000   -0.20000000         24/125
   4:     0.40000000    0.20000000    0.20000000         12/125
   5:     0.40000000    0.40000000   -0.40000000         24/125
   6:     0.40000000    0.40000000   -0.20000000         12/125
   7:     0.40000000    0.40000000    0.00000000          6/125
   8:     0.40000000    0.40000000    0.20000000         24/125
   9:     0.40000000    0.40000000    0.40000000          8/125

Wave functions: Plane wave expansion
  Cutoff energy: 400.000 eV
  Number of coefficients (min, max): 269, 291
  Pulay-stress correction: 0.000000 eV/Ang^3 (de/decut=0.000000)
  Using FFTW library
  ScaLapack parameters: grid=1x1, blocksize=None
  Wavefunction extrapolation:
    Improved wavefunction reuse through dual PAW basis 

Occupation numbers: Fermi-Dirac: width=0.1000 eV
 

Eigensolver
   Davidson(niter=2) 

Densities:
  Coarse grid: 14*14*14 grid
  Fine grid: 28*28*28 grid
  Total Charge: 0.000000 

Density mixing:
  Method: separate
  Backend: pulay
  Linear mixing parameter: 0.05
  Mixing with 5 old densities
  Damping of long wave oscillations: 50 

Hamiltonian:
  XC and Coulomb potentials evaluated on a 28*28*28 grid
  Using the PBE Exchange-Correlation functional
  External potential:
    NoExternalPotential
 

XC parameters: PBE with 2 nearest neighbor stencil

Memory estimate:
  Process memory now: 161.95 MiB
  Calculator: 2.08 MiB
    Density: 1.04 MiB
      Arrays: 0.54 MiB
      Localized functions: 0.29 MiB
      Mixer: 0.21 MiB
    Hamiltonian: 0.36 MiB
      Arrays: 0.36 MiB
      XC: 0.00 MiB
      Poisson: 0.00 MiB
      vbar: 0.01 MiB
    Wavefunctions: 0.68 MiB
      Arrays psit_nG: 0.18 MiB
      Eigensolver: 0.04 MiB
      Projections: 0.01 MiB
      Projectors: 0.30 MiB
      PW-descriptor: 0.15 MiB

Total number of cores used: 1

Number of atoms: 1
Number of atomic orbitals: 13
Number of bands in calculation: 4
Number of valence electrons: 3
Bands to converge: occupied

... initialized

Initializing position-dependent things.

Density initialized from atomic densities
Creating initial wave functions:
  4 bands from LCAO basis set

                
                
                
       Al       
                
                
                
                

Positions:
   0 Al     0.000000    0.000000    0.000000    ( 0.0000,  0.0000,  0.0000)

Unit cell:
           periodic     x           y           z      points  spacing
  1. axis:    yes    0.000000    1.971499    1.971499    14     0.1626
  2. axis:    yes    1.971499    0.000000    1.971499    14     0.1626
  3. axis:    yes    1.971499    1.971499    0.000000    14     0.1626

  Lengths:   2.788120   2.788120   2.788120
  Angles:   60.000000  60.000000  60.000000

Effective grid spacing dv^(1/3) = 0.1774

     iter     time        total  log10-change:
                         energy  eigst   dens
iter:   1 11:29:17    -3.633110
iter:   2 11:29:17    -3.633801  -3.52  -0.95
iter:   3 11:29:17    -3.640224  -2.89  -0.98
iter:   4 11:29:17    -3.640262  -4.52  -2.50
iter:   5 11:29:17    -3.639839c -4.65  -2.47
iter:   6 11:29:17    -3.640283c -4.40  -2.00
iter:   7 11:29:17    -3.640284c -6.34  -3.47
iter:   8 11:29:17    -3.640282c -7.63c -3.73
iter:   9 11:29:17    -3.640285c -7.06  -3.32
iter:  10 11:29:17    -3.640285c -8.79c -4.71c

Converged after 10 iterations.

Dipole moment: (-0.000000, -0.000000, -0.000000) |e|*Ang

Energy contributions relative to reference atoms: (reference = -6603.423265)

Kinetic:         +6.933846
Potential:       -4.226728
External:        +0.000000
XC:              -6.321080
Entropy (-ST):   -0.035331
Local:           -0.008658
--------------------------
Free energy:     -3.657950
Extrapolated:    -3.640285

Showing only first 2 kpts
 Kpt  Band  Eigenvalues  Occupancy
  0     0     -3.77042    2.00000
  0     1     20.93731    0.00000
  0     2     20.93731    0.00000

  1     0     -2.25550    2.00000
  1     1     16.52061    0.00000
  1     2     16.71079    0.00000


Fermi level: 8.20075

No gap
System changes: cell 

Initialize ...

Al-setup:
  name: Aluminium
  id: 0292cae29f5d6237e50f6abdd43a7bdd
  Z: 13.0
  valence: 3
  core: 10
  charge: 0.0
  file: /Users/glebdovzhenko/.gpaw/gpaw-setups-0.9.20000/Al.PBE.gz
  compensation charges: gauss, rc=0.34, lmax=2
  cutoffs: 1.91(filt), 2.36(core),
  valence states:
                energy  radius
    3s(2.00)    -7.753   1.085
    3p(1.00)    -2.712   1.085
    *s          19.459   1.085
    *p          24.499   1.085
    *d           0.000   1.085

  LCAO basis set for Al:
    Name: dzp
    File: /Users/glebdovzhenko/.gpaw/gpaw-setups-0.9.20000/Al.dzp.basis.gz
    Number of radial functions: 5
    Number of spherical harmonics: 13
      l=0, rc=7.8750 Bohr: 3s-sz confined orbital
      l=1, rc=10.4219 Bohr: 3p-sz confined orbital
      l=0, rc=4.6094 Bohr: 3s-dz split-valence wave
      l=1, rc=6.2812 Bohr: 3p-dz split-valence wave
      l=2, rc=10.4219 Bohr: d-type Gaussian polarization

Reference energy: -6603.423265

Spin-paired calculation

Convergence criteria:
 Maximum [total energy] change in last 3 cyles: 0.0005 eV / electron
 Maximum integral of absolute [dens]ity change: 0.0001 electrons / valence electron
 Maximum integral of absolute [eigenst]ate change: 4e-08 eV^2 / valence electron
 Maximum number of scf [iter]ations: 333
 (Square brackets indicate name in SCF output, whereas a 'c' in
 the SCF output indicates the quantity has converged.)

Symmetries present (total): 48

  ( 1  0  0)  ( 1  0  0)  ( 1  0  0)  ( 1  0  0)  ( 1  0 -1)  ( 1  0 -1)
  ( 1  0 -1)  ( 1 -1  0)  ( 0  1  0)  ( 0  0  1)  ( 1  0  0)  ( 1 -1  0)
  ( 1 -1  0)  ( 1  0 -1)  ( 0  0  1)  ( 0  1  0)  ( 1 -1  0)  ( 1  0  0)

  ( 1  0 -1)  ( 1  0 -1)  ( 1 -1  0)  ( 1 -1  0)  ( 1 -1  0)  ( 1 -1  0)
  ( 0  1 -1)  ( 0  0 -1)  ( 1  0  0)  ( 1  0 -1)  ( 0 -1  1)  ( 0 -1  0)
  ( 0  0 -1)  ( 0  1 -1)  ( 1  0 -1)  ( 1  0  0)  ( 0 -1  0)  ( 0 -1  1)

  ( 0  1  0)  ( 0  1  0)  ( 0  1  0)  ( 0  1  0)  ( 0  1 -1)  ( 0  1 -1)
  ( 1  0  0)  ( 0  1 -1)  ( 0  0  1)  (-1  1  0)  ( 1  0 -1)  ( 0  1  0)
  ( 0  0  1)  (-1  1  0)  ( 1  0  0)  ( 0  1 -1)  ( 0  0 -1)  (-1  1  0)

  ( 0  1 -1)  ( 0  1 -1)  ( 0  0  1)  ( 0  0  1)  ( 0  0  1)  ( 0  0  1)
  ( 0  0 -1)  (-1  1  0)  ( 1  0  0)  ( 0  1  0)  ( 0 -1  1)  (-1  0  1)
  ( 1  0 -1)  ( 0  1  0)  ( 0  1  0)  ( 1  0  0)  (-1  0  1)  ( 0 -1  1)

  ( 0  0 -1)  ( 0  0 -1)  ( 0  0 -1)  ( 0  0 -1)  ( 0 -1  1)  ( 0 -1  1)
  ( 1  0 -1)  ( 0  1 -1)  ( 0 -1  0)  (-1  0  0)  ( 1 -1  0)  ( 0  0  1)
  ( 0  1 -1)  ( 1  0 -1)  (-1  0  0)  ( 0 -1  0)  ( 0 -1  0)  (-1  0  1)

  ( 0 -1  1)  ( 0 -1  1)  ( 0 -1  0)  ( 0 -1  0)  ( 0 -1  0)  ( 0 -1  0)
  ( 0 -1  0)  (-1  0  1)  ( 1 -1  0)  ( 0  0 -1)  ( 0 -1  1)  (-1  0  0)
  ( 1 -1  0)  ( 0  0  1)  ( 0 -1  1)  (-1  0  0)  ( 1 -1  0)  ( 0  0 -1)

  (-1  1  0)  (-1  1  0)  (-1  1  0)  (-1  1  0)  (-1  0  1)  (-1  0  1)
  ( 0  1  0)  ( 0  1 -1)  (-1  0  1)  (-1  0  0)  ( 0  0  1)  ( 0 -1  1)
  ( 0  1 -1)  ( 0  1  0)  (-1  0  0)  (-1  0  1)  ( 0 -1  1)  ( 0  0  1)

  (-1  0  1)  (-1  0  1)  (-1  0  0)  (-1  0  0)  (-1  0  0)  (-1  0  0)
  (-1  1  0)  (-1  0  0)  ( 0  0 -1)  ( 0 -1  0)  (-1  1  0)  (-1  0  1)
  (-1  0  0)  (-1  1  0)  ( 0 -1  0)  ( 0  0 -1)  (-1  0  1)  (-1  1  0)

125 k-points: 5 x 5 x 5 Monkhorst-Pack grid
10 k-points in the irreducible part of the Brillouin zone
       k-points in crystal coordinates                weights
   0:     0.00000000    0.00000000    0.00000000          1/125
   1:     0.20000000    0.20000000    0.00000000          6/125
   2:     0.20000000    0.20000000    0.20000000          8/125
   3:     0.40000000    0.20000000   -0.20000000         24/125
   4:     0.40000000    0.20000000    0.20000000         12/125
   5:     0.40000000    0.40000000   -0.40000000         24/125
   6:     0.40000000    0.40000000   -0.20000000         12/125
   7:     0.40000000    0.40000000    0.00000000          6/125
   8:     0.40000000    0.40000000    0.20000000         24/125
   9:     0.40000000    0.40000000    0.40000000          8/125

Wave functions: Plane wave expansion
  Cutoff energy: 400.000 eV
  Number of coefficients (min, max): 290, 307
  Pulay-stress correction: 0.000000 eV/Ang^3 (de/decut=0.000000)
  Using FFTW library
  ScaLapack parameters: grid=1x1, blocksize=None
  Wavefunction extrapolation:
    Improved wavefunction reuse through dual PAW basis 

Occupation numbers: Fermi-Dirac: width=0.1000 eV
 

Eigensolver
   Davidson(niter=2) 

Densities:
  Coarse grid: 14*14*14 grid
  Fine grid: 28*28*28 grid
  Total Charge: 0.000000 

Density mixing:
  Method: separate
  Backend: pulay
  Linear mixing parameter: 0.05
  Mixing with 5 old densities
  Damping of long wave oscillations: 50 

Hamiltonian:
  XC and Coulomb potentials evaluated on a 28*28*28 grid
  Using the PBE Exchange-Correlation functional
  External potential:
    NoExternalPotential
 

XC parameters: PBE with 2 nearest neighbor stencil

Memory estimate:
  Process memory now: 163.61 MiB
  Calculator: 2.14 MiB
    Density: 1.07 MiB
      Arrays: 0.54 MiB
      Localized functions: 0.31 MiB
      Mixer: 0.21 MiB
    Hamiltonian: 0.36 MiB
      Arrays: 0.36 MiB
      XC: 0.00 MiB
      Poisson: 0.00 MiB
      vbar: 0.01 MiB
    Wavefunctions: 0.71 MiB
      Arrays psit_nG: 0.19 MiB
      Eigensolver: 0.04 MiB
      Projections: 0.01 MiB
      Projectors: 0.32 MiB
      PW-descriptor: 0.15 MiB

Total number of cores used: 1

Number of atoms: 1
Number of atomic orbitals: 13
Number of bands in calculation: 4
Number of valence electrons: 3
Bands to converge: occupied

... initialized

Initializing position-dependent things.

Density initialized from atomic densities
Creating initial wave functions:
  4 bands from LCAO basis set

                
                
                
       Al       
                
                
                
                

Positions:
   0 Al     0.000000    0.000000    0.000000    ( 0.0000,  0.0000,  0.0000)

Unit cell:
           periodic     x           y           z      points  spacing
  1. axis:    yes    0.000000    2.010929    2.010929    14     0.1659
  2. axis:    yes    2.010929    0.000000    2.010929    14     0.1659
  3. axis:    yes    2.010929    2.010929    0.000000    14     0.1659

  Lengths:   2.843883   2.843883   2.843883
  Angles:   60.000000  60.000000  60.000000

Effective grid spacing dv^(1/3) = 0.1810

     iter     time        total  log10-change:
                         energy  eigst   dens
iter:   1 11:29:18    -3.674478
iter:   2 11:29:19    -3.674749  -3.49  -0.95
iter:   3 11:29:19    -3.676920  -3.01  -0.97
iter:   4 11:29:19    -3.676873  -4.75  -2.39
iter:   5 11:29:19    -3.676653c -4.80  -2.50
iter:   6 11:29:19    -3.676918c -4.52  -2.10
iter:   7 11:29:19    -3.676922c -6.00  -3.08
iter:   8 11:29:19    -3.676923c -7.37  -3.72
iter:   9 11:29:19    -3.676922c -9.16c -4.27c

Converged after 9 iterations.

Dipole moment: (0.000000, 0.000000, 0.000000) |e|*Ang

Energy contributions relative to reference atoms: (reference = -6603.423265)

Kinetic:         +4.757773
Potential:       -2.623020
External:        +0.000000
XC:              -5.789697
Entropy (-ST):   -0.030465
Local:           -0.006747
--------------------------
Free energy:     -3.692155
Extrapolated:    -3.676922

Showing only first 2 kpts
 Kpt  Band  Eigenvalues  Occupancy
  0     0     -3.93838    2.00000
  0     1     20.00808    0.00000
  0     2     20.00808    0.00000

  1     0     -2.48108    2.00000
  1     1     15.75795    0.00000
  1     2     15.75795    0.00000


Fermi level: 7.62063

No gap
