
  ___ ___ ___ _ _ _  
 |   |   |_  | | | | 
 | | | | | . | | | | 
 |__ |  _|___|_____|  22.1.0
 |___|_|             

User:   glebdovzhenko@Glebs.local
Date:   Sat Apr  9 11:58:51 2022
Arch:   x86_64
Pid:    43836
Python: 3.9.12
gpaw:   /Users/glebdovzhenko/Dropbox/PycharmProjects/DFT/venv/lib/python3.9/site-packages/gpaw
_gpaw:  /Users/glebdovzhenko/Dropbox/PycharmProjects/DFT/venv/lib/python3.9/site-packages/
        _gpaw.cpython-39-darwin.so
ase:    /Users/glebdovzhenko/Dropbox/PycharmProjects/DFT/venv/lib/python3.9/site-packages/ase (version 3.22.1)
numpy:  /Users/glebdovzhenko/Dropbox/PycharmProjects/DFT/venv/lib/python3.9/site-packages/numpy (version 1.22.3)
scipy:  /Users/glebdovzhenko/Dropbox/PycharmProjects/DFT/venv/lib/python3.9/site-packages/scipy (version 1.8.0)
libxc:  5.2.2
units:  Angstrom and eV
cores: 1
OpenMP: False
OMP_NUM_THREADS: 1

Input parameters:
  basis: dzp
  kpts: [8 8 8]
  mode: {ecut: 1200.0,
         name: pw}
  xc: PBE

System changes: positions, numbers, cell, pbc, initial_charges, initial_magmoms 

Initialize ...

Al-setup:
  name: Aluminium
  id: 0292cae29f5d6237e50f6abdd43a7bdd
  Z: 13.0
  valence: 3
  core: 10
  charge: 0.0
  file: /Users/glebdovzhenko/.gpaw/gpaw-setups-0.9.20000/Al.PBE.gz
  compensation charges: gauss, rc=0.34, lmax=2
  cutoffs: 1.91(filt), 2.36(core),
  valence states:
                energy  radius
    3s(2.00)    -7.753   1.085
    3p(1.00)    -2.712   1.085
    *s          19.459   1.085
    *p          24.499   1.085
    *d           0.000   1.085

  LCAO basis set for Al:
    Name: dzp
    File: /Users/glebdovzhenko/.gpaw/gpaw-setups-0.9.20000/Al.dzp.basis.gz
    Number of radial functions: 5
    Number of spherical harmonics: 13
      l=0, rc=7.8750 Bohr: 3s-sz confined orbital
      l=1, rc=10.4219 Bohr: 3p-sz confined orbital
      l=0, rc=4.6094 Bohr: 3s-dz split-valence wave
      l=1, rc=6.2812 Bohr: 3p-dz split-valence wave
      l=2, rc=10.4219 Bohr: d-type Gaussian polarization

Reference energy: -6603.423265

Spin-paired calculation

Convergence criteria:
 Maximum [total energy] change in last 3 cyles: 0.0005 eV / electron
 Maximum integral of absolute [dens]ity change: 0.0001 electrons / valence electron
 Maximum integral of absolute [eigenst]ate change: 4e-08 eV^2 / valence electron
 Maximum number of scf [iter]ations: 333
 (Square brackets indicate name in SCF output, whereas a 'c' in
 the SCF output indicates the quantity has converged.)

Symmetries present (total): 48

  ( 1  0  0)  ( 1  0  0)  ( 1  0  0)  ( 1  0  0)  ( 1  0 -1)  ( 1  0 -1)
  ( 1  0 -1)  ( 1 -1  0)  ( 0  1  0)  ( 0  0  1)  ( 1  0  0)  ( 1 -1  0)
  ( 1 -1  0)  ( 1  0 -1)  ( 0  0  1)  ( 0  1  0)  ( 1 -1  0)  ( 1  0  0)

  ( 1  0 -1)  ( 1  0 -1)  ( 1 -1  0)  ( 1 -1  0)  ( 1 -1  0)  ( 1 -1  0)
  ( 0  1 -1)  ( 0  0 -1)  ( 1  0  0)  ( 1  0 -1)  ( 0 -1  1)  ( 0 -1  0)
  ( 0  0 -1)  ( 0  1 -1)  ( 1  0 -1)  ( 1  0  0)  ( 0 -1  0)  ( 0 -1  1)

  ( 0  1  0)  ( 0  1  0)  ( 0  1  0)  ( 0  1  0)  ( 0  1 -1)  ( 0  1 -1)
  ( 1  0  0)  ( 0  1 -1)  ( 0  0  1)  (-1  1  0)  ( 1  0 -1)  ( 0  1  0)
  ( 0  0  1)  (-1  1  0)  ( 1  0  0)  ( 0  1 -1)  ( 0  0 -1)  (-1  1  0)

  ( 0  1 -1)  ( 0  1 -1)  ( 0  0  1)  ( 0  0  1)  ( 0  0  1)  ( 0  0  1)
  ( 0  0 -1)  (-1  1  0)  ( 1  0  0)  ( 0  1  0)  ( 0 -1  1)  (-1  0  1)
  ( 1  0 -1)  ( 0  1  0)  ( 0  1  0)  ( 1  0  0)  (-1  0  1)  ( 0 -1  1)

  ( 0  0 -1)  ( 0  0 -1)  ( 0  0 -1)  ( 0  0 -1)  ( 0 -1  1)  ( 0 -1  1)
  ( 1  0 -1)  ( 0  1 -1)  ( 0 -1  0)  (-1  0  0)  ( 1 -1  0)  ( 0  0  1)
  ( 0  1 -1)  ( 1  0 -1)  (-1  0  0)  ( 0 -1  0)  ( 0 -1  0)  (-1  0  1)

  ( 0 -1  1)  ( 0 -1  1)  ( 0 -1  0)  ( 0 -1  0)  ( 0 -1  0)  ( 0 -1  0)
  ( 0 -1  0)  (-1  0  1)  ( 1 -1  0)  ( 0  0 -1)  ( 0 -1  1)  (-1  0  0)
  ( 1 -1  0)  ( 0  0  1)  ( 0 -1  1)  (-1  0  0)  ( 1 -1  0)  ( 0  0 -1)

  (-1  1  0)  (-1  1  0)  (-1  1  0)  (-1  1  0)  (-1  0  1)  (-1  0  1)
  ( 0  1  0)  ( 0  1 -1)  (-1  0  1)  (-1  0  0)  ( 0  0  1)  ( 0 -1  1)
  ( 0  1 -1)  ( 0  1  0)  (-1  0  0)  (-1  0  1)  ( 0 -1  1)  ( 0  0  1)

  (-1  0  1)  (-1  0  1)  (-1  0  0)  (-1  0  0)  (-1  0  0)  (-1  0  0)
  (-1  1  0)  (-1  0  0)  ( 0  0 -1)  ( 0 -1  0)  (-1  1  0)  (-1  0  1)
  (-1  0  0)  (-1  1  0)  ( 0 -1  0)  ( 0  0 -1)  (-1  0  1)  (-1  1  0)
Note: your k-points are not as symmetric as your crystal!

512 k-points: 8 x 8 x 8 Monkhorst-Pack grid
60 k-points in the irreducible part of the Brillouin zone
       k-points in crystal coordinates                weights
   0:     0.06250000    0.06250000   -0.06250000          6/512
   1:     0.06250000    0.06250000    0.06250000          2/512
   2:     0.18750000   -0.06250000   -0.06250000          6/512
   3:     0.18750000    0.06250000   -0.18750000         12/512
   4:     0.18750000    0.06250000   -0.06250000         12/512
   5:     0.18750000    0.06250000    0.06250000          6/512
   6:     0.18750000    0.18750000   -0.18750000          6/512
   7:     0.18750000    0.18750000   -0.06250000          6/512
   8:     0.18750000    0.18750000    0.06250000          6/512
   9:     0.18750000    0.18750000    0.18750000          2/512
          ...
  59:     0.43750000    0.43750000    0.43750000          2/512

Wave functions: Plane wave expansion
  Cutoff energy: 1200.000 eV
  Number of coefficients (min, max): 1441, 1469
  Pulay-stress correction: 0.000000 eV/Ang^3 (de/decut=0.000000)
  Using FFTW library
  ScaLapack parameters: grid=1x1, blocksize=None
  Wavefunction extrapolation:
    Improved wavefunction reuse through dual PAW basis 

Occupation numbers: Fermi-Dirac: width=0.1000 eV
 

Eigensolver
   Davidson(niter=2) 

Densities:
  Coarse grid: 24*24*24 grid
  Fine grid: 48*48*48 grid
  Total Charge: 0.000000 

Density mixing:
  Method: separate
  Backend: pulay
  Linear mixing parameter: 0.05
  Mixing with 5 old densities
  Damping of long wave oscillations: 50 

Hamiltonian:
  XC and Coulomb potentials evaluated on a 48*48*48 grid
  Using the PBE Exchange-Correlation functional
  External potential:
    NoExternalPotential
 

XC parameters: PBE with 2 nearest neighbor stencil

Memory estimate:
  Process memory now: 179.92 MiB
  Calculator: 24.02 MiB
    Density: 5.34 MiB
      Arrays: 2.74 MiB
      Localized functions: 1.55 MiB
      Mixer: 1.05 MiB
    Hamiltonian: 1.82 MiB
      Arrays: 1.79 MiB
      XC: 0.00 MiB
      Poisson: 0.00 MiB
      vbar: 0.03 MiB
    Wavefunctions: 16.85 MiB
      Arrays psit_nG: 5.38 MiB
      Eigensolver: 0.20 MiB
      Projections: 0.05 MiB
      Projectors: 9.35 MiB
      PW-descriptor: 1.87 MiB

Total number of cores used: 1

Number of atoms: 1
Number of atomic orbitals: 13
Number of bands in calculation: 4
Number of valence electrons: 3
Bands to converge: occupied

... initialized

Initializing position-dependent things.

Density initialized from atomic densities
Creating initial wave functions:
  4 bands from LCAO basis set

                
                
                
       Al       
                
                
                
                

Positions:
   0 Al     0.000000    0.000000    0.000000    ( 0.0000,  0.0000,  0.0000)

Unit cell:
           periodic     x           y           z      points  spacing
  1. axis:    yes    0.000000    1.977621    1.977621    24     0.0951
  2. axis:    yes    1.977621    0.000000    1.977621    24     0.0951
  3. axis:    yes    1.977621    1.977621    0.000000    24     0.0951

  Lengths:   2.796779   2.796779   2.796779
  Angles:   60.000000  60.000000  60.000000

Effective grid spacing dv^(1/3) = 0.1038

     iter     time        total  log10-change:
                         energy  eigst   dens
iter:   1 11:59:01    -3.719990
iter:   2 11:59:02    -3.720482  -3.85  -0.93
iter:   3 11:59:03    -3.725709  -2.97  -0.96
iter:   4 11:59:03    -3.725804  -4.43  -2.41
iter:   5 11:59:04    -3.725720c -4.86  -2.39
iter:   6 11:59:05    -3.725801c -4.50  -2.03
iter:   7 11:59:05    -3.725803c -5.95  -3.23
iter:   8 11:59:06    -3.725803c -7.23  -3.71
iter:   9 11:59:07    -3.725803c -7.89c -3.39
iter:  10 11:59:07    -3.725803c -9.85c -4.55c

Converged after 10 iterations.

Dipole moment: (-0.000000, 0.000000, 0.000000) |e|*Ang

Energy contributions relative to reference atoms: (reference = -6603.423265)

Kinetic:         +5.953346
Potential:       -3.455905
External:        +0.000000
XC:              -6.209660
Entropy (-ST):   -0.010495
Local:           -0.008338
--------------------------
Free energy:     -3.731051
Extrapolated:    -3.725803

Showing only first 2 kpts
 Kpt  Band  Eigenvalues  Occupancy
  0     0     -3.39289    2.00000
  0     1     17.32584    0.00000
  0     2     18.95685    0.00000

  1     0     -3.68808    2.00000
  1     1     19.02504    0.00000
  1     2     20.47102    0.00000


Fermi level: 7.75907

No gap
System changes: cell 

Initialize ...

Al-setup:
  name: Aluminium
  id: 0292cae29f5d6237e50f6abdd43a7bdd
  Z: 13.0
  valence: 3
  core: 10
  charge: 0.0
  file: /Users/glebdovzhenko/.gpaw/gpaw-setups-0.9.20000/Al.PBE.gz
  compensation charges: gauss, rc=0.34, lmax=2
  cutoffs: 1.91(filt), 2.36(core),
  valence states:
                energy  radius
    3s(2.00)    -7.753   1.085
    3p(1.00)    -2.712   1.085
    *s          19.459   1.085
    *p          24.499   1.085
    *d           0.000   1.085

  LCAO basis set for Al:
    Name: dzp
    File: /Users/glebdovzhenko/.gpaw/gpaw-setups-0.9.20000/Al.dzp.basis.gz
    Number of radial functions: 5
    Number of spherical harmonics: 13
      l=0, rc=7.8750 Bohr: 3s-sz confined orbital
      l=1, rc=10.4219 Bohr: 3p-sz confined orbital
      l=0, rc=4.6094 Bohr: 3s-dz split-valence wave
      l=1, rc=6.2812 Bohr: 3p-dz split-valence wave
      l=2, rc=10.4219 Bohr: d-type Gaussian polarization

Reference energy: -6603.423265

Spin-paired calculation

Convergence criteria:
 Maximum [total energy] change in last 3 cyles: 0.0005 eV / electron
 Maximum integral of absolute [dens]ity change: 0.0001 electrons / valence electron
 Maximum integral of absolute [eigenst]ate change: 4e-08 eV^2 / valence electron
 Maximum number of scf [iter]ations: 333
 (Square brackets indicate name in SCF output, whereas a 'c' in
 the SCF output indicates the quantity has converged.)

Symmetries present (total): 48

  ( 1  0  0)  ( 1  0  0)  ( 1  0  0)  ( 1  0  0)  ( 1  0 -1)  ( 1  0 -1)
  ( 1  0 -1)  ( 1 -1  0)  ( 0  1  0)  ( 0  0  1)  ( 1  0  0)  ( 1 -1  0)
  ( 1 -1  0)  ( 1  0 -1)  ( 0  0  1)  ( 0  1  0)  ( 1 -1  0)  ( 1  0  0)

  ( 1  0 -1)  ( 1  0 -1)  ( 1 -1  0)  ( 1 -1  0)  ( 1 -1  0)  ( 1 -1  0)
  ( 0  1 -1)  ( 0  0 -1)  ( 1  0  0)  ( 1  0 -1)  ( 0 -1  1)  ( 0 -1  0)
  ( 0  0 -1)  ( 0  1 -1)  ( 1  0 -1)  ( 1  0  0)  ( 0 -1  0)  ( 0 -1  1)

  ( 0  1  0)  ( 0  1  0)  ( 0  1  0)  ( 0  1  0)  ( 0  1 -1)  ( 0  1 -1)
  ( 1  0  0)  ( 0  1 -1)  ( 0  0  1)  (-1  1  0)  ( 1  0 -1)  ( 0  1  0)
  ( 0  0  1)  (-1  1  0)  ( 1  0  0)  ( 0  1 -1)  ( 0  0 -1)  (-1  1  0)

  ( 0  1 -1)  ( 0  1 -1)  ( 0  0  1)  ( 0  0  1)  ( 0  0  1)  ( 0  0  1)
  ( 0  0 -1)  (-1  1  0)  ( 1  0  0)  ( 0  1  0)  ( 0 -1  1)  (-1  0  1)
  ( 1  0 -1)  ( 0  1  0)  ( 0  1  0)  ( 1  0  0)  (-1  0  1)  ( 0 -1  1)

  ( 0  0 -1)  ( 0  0 -1)  ( 0  0 -1)  ( 0  0 -1)  ( 0 -1  1)  ( 0 -1  1)
  ( 1  0 -1)  ( 0  1 -1)  ( 0 -1  0)  (-1  0  0)  ( 1 -1  0)  ( 0  0  1)
  ( 0  1 -1)  ( 1  0 -1)  (-1  0  0)  ( 0 -1  0)  ( 0 -1  0)  (-1  0  1)

  ( 0 -1  1)  ( 0 -1  1)  ( 0 -1  0)  ( 0 -1  0)  ( 0 -1  0)  ( 0 -1  0)
  ( 0 -1  0)  (-1  0  1)  ( 1 -1  0)  ( 0  0 -1)  ( 0 -1  1)  (-1  0  0)
  ( 1 -1  0)  ( 0  0  1)  ( 0 -1  1)  (-1  0  0)  ( 1 -1  0)  ( 0  0 -1)

  (-1  1  0)  (-1  1  0)  (-1  1  0)  (-1  1  0)  (-1  0  1)  (-1  0  1)
  ( 0  1  0)  ( 0  1 -1)  (-1  0  1)  (-1  0  0)  ( 0  0  1)  ( 0 -1  1)
  ( 0  1 -1)  ( 0  1  0)  (-1  0  0)  (-1  0  1)  ( 0 -1  1)  ( 0  0  1)

  (-1  0  1)  (-1  0  1)  (-1  0  0)  (-1  0  0)  (-1  0  0)  (-1  0  0)
  (-1  1  0)  (-1  0  0)  ( 0  0 -1)  ( 0 -1  0)  (-1  1  0)  (-1  0  1)
  (-1  0  0)  (-1  1  0)  ( 0 -1  0)  ( 0  0 -1)  (-1  0  1)  (-1  1  0)
Note: your k-points are not as symmetric as your crystal!

512 k-points: 8 x 8 x 8 Monkhorst-Pack grid
60 k-points in the irreducible part of the Brillouin zone
       k-points in crystal coordinates                weights
   0:     0.06250000    0.06250000   -0.06250000          6/512
   1:     0.06250000    0.06250000    0.06250000          2/512
   2:     0.18750000   -0.06250000   -0.06250000          6/512
   3:     0.18750000    0.06250000   -0.18750000         12/512
   4:     0.18750000    0.06250000   -0.06250000         12/512
   5:     0.18750000    0.06250000    0.06250000          6/512
   6:     0.18750000    0.18750000   -0.18750000          6/512
   7:     0.18750000    0.18750000   -0.06250000          6/512
   8:     0.18750000    0.18750000    0.06250000          6/512
   9:     0.18750000    0.18750000    0.18750000          2/512
          ...
  59:     0.43750000    0.43750000    0.43750000          2/512

Wave functions: Plane wave expansion
  Cutoff energy: 1200.000 eV
  Number of coefficients (min, max): 1400, 1429
  Pulay-stress correction: 0.000000 eV/Ang^3 (de/decut=0.000000)
  Using FFTW library
  ScaLapack parameters: grid=1x1, blocksize=None
  Wavefunction extrapolation:
    Improved wavefunction reuse through dual PAW basis 

Occupation numbers: Fermi-Dirac: width=0.1000 eV
 

Eigensolver
   Davidson(niter=2) 

Densities:
  Coarse grid: 24*24*24 grid
  Fine grid: 48*48*48 grid
  Total Charge: 0.000000 

Density mixing:
  Method: separate
  Backend: pulay
  Linear mixing parameter: 0.05
  Mixing with 5 old densities
  Damping of long wave oscillations: 50 

Hamiltonian:
  XC and Coulomb potentials evaluated on a 48*48*48 grid
  Using the PBE Exchange-Correlation functional
  External potential:
    NoExternalPotential
 

XC parameters: PBE with 2 nearest neighbor stencil

Memory estimate:
  Process memory now: 179.92 MiB
  Calculator: 23.51 MiB
    Density: 5.29 MiB
      Arrays: 2.74 MiB
      Localized functions: 1.49 MiB
      Mixer: 1.05 MiB
    Hamiltonian: 1.82 MiB
      Arrays: 1.79 MiB
      XC: 0.00 MiB
      Poisson: 0.00 MiB
      vbar: 0.03 MiB
    Wavefunctions: 16.39 MiB
      Arrays psit_nG: 5.23 MiB
      Eigensolver: 0.20 MiB
      Projections: 0.05 MiB
      Projectors: 9.08 MiB
      PW-descriptor: 1.84 MiB

Total number of cores used: 1

Number of atoms: 1
Number of atomic orbitals: 13
Number of bands in calculation: 4
Number of valence electrons: 3
Bands to converge: occupied

... initialized

Initializing position-dependent things.

Density initialized from atomic densities
Creating initial wave functions:
  4 bands from LCAO basis set

                
                
                
       Al       
                
                
                
                

Positions:
   0 Al     0.000000    0.000000    0.000000    ( 0.0000,  0.0000,  0.0000)

Unit cell:
           periodic     x           y           z      points  spacing
  1. axis:    yes    0.000000    1.957845    1.957845    24     0.0942
  2. axis:    yes    1.957845    0.000000    1.957845    24     0.0942
  3. axis:    yes    1.957845    1.957845    0.000000    24     0.0942

  Lengths:   2.768811   2.768811   2.768811
  Angles:   60.000000  60.000000  60.000000

Effective grid spacing dv^(1/3) = 0.1028

     iter     time        total  log10-change:
                         energy  eigst   dens
iter:   1 11:59:17    -3.696335
iter:   2 11:59:17    -3.697056  -3.88  -0.94
iter:   3 11:59:18    -3.704742  -2.90  -0.96
iter:   4 11:59:19    -3.704858  -4.43  -2.39
iter:   5 11:59:19    -3.704624c -4.41  -2.37
iter:   6 11:59:20    -3.704849c -4.25  -1.85
iter:   7 11:59:21    -3.704851c -5.92  -3.34
iter:   8 11:59:22    -3.704850c -7.73c -3.71
iter:   9 11:59:22    -3.704851c -6.93  -3.33
iter:  10 11:59:23    -3.704851c -8.65c -4.57c

Converged after 10 iterations.

Dipole moment: (-0.000000, 0.000000, -0.000000) |e|*Ang

Energy contributions relative to reference atoms: (reference = -6603.423265)

Kinetic:         +7.177309
Potential:       -4.376556
External:        +0.000000
XC:              -6.491244
Entropy (-ST):   -0.009970
Local:           -0.009375
--------------------------
Free energy:     -3.709836
Extrapolated:    -3.704851

Showing only first 2 kpts
 Kpt  Band  Eigenvalues  Occupancy
  0     0     -3.29539    2.00000
  0     1     17.79036    0.00000
  0     2     19.47580    0.00000

  1     0     -3.59650    2.00000
  1     1     19.51552    0.00000
  1     2     20.97698    0.00000


Fermi level: 8.05603

No gap
System changes: cell 

Initialize ...

Al-setup:
  name: Aluminium
  id: 0292cae29f5d6237e50f6abdd43a7bdd
  Z: 13.0
  valence: 3
  core: 10
  charge: 0.0
  file: /Users/glebdovzhenko/.gpaw/gpaw-setups-0.9.20000/Al.PBE.gz
  compensation charges: gauss, rc=0.34, lmax=2
  cutoffs: 1.91(filt), 2.36(core),
  valence states:
                energy  radius
    3s(2.00)    -7.753   1.085
    3p(1.00)    -2.712   1.085
    *s          19.459   1.085
    *p          24.499   1.085
    *d           0.000   1.085

  LCAO basis set for Al:
    Name: dzp
    File: /Users/glebdovzhenko/.gpaw/gpaw-setups-0.9.20000/Al.dzp.basis.gz
    Number of radial functions: 5
    Number of spherical harmonics: 13
      l=0, rc=7.8750 Bohr: 3s-sz confined orbital
      l=1, rc=10.4219 Bohr: 3p-sz confined orbital
      l=0, rc=4.6094 Bohr: 3s-dz split-valence wave
      l=1, rc=6.2812 Bohr: 3p-dz split-valence wave
      l=2, rc=10.4219 Bohr: d-type Gaussian polarization

Reference energy: -6603.423265

Spin-paired calculation

Convergence criteria:
 Maximum [total energy] change in last 3 cyles: 0.0005 eV / electron
 Maximum integral of absolute [dens]ity change: 0.0001 electrons / valence electron
 Maximum integral of absolute [eigenst]ate change: 4e-08 eV^2 / valence electron
 Maximum number of scf [iter]ations: 333
 (Square brackets indicate name in SCF output, whereas a 'c' in
 the SCF output indicates the quantity has converged.)

Symmetries present (total): 48

  ( 1  0  0)  ( 1  0  0)  ( 1  0  0)  ( 1  0  0)  ( 1  0 -1)  ( 1  0 -1)
  ( 1  0 -1)  ( 1 -1  0)  ( 0  1  0)  ( 0  0  1)  ( 1  0  0)  ( 1 -1  0)
  ( 1 -1  0)  ( 1  0 -1)  ( 0  0  1)  ( 0  1  0)  ( 1 -1  0)  ( 1  0  0)

  ( 1  0 -1)  ( 1  0 -1)  ( 1 -1  0)  ( 1 -1  0)  ( 1 -1  0)  ( 1 -1  0)
  ( 0  1 -1)  ( 0  0 -1)  ( 1  0  0)  ( 1  0 -1)  ( 0 -1  1)  ( 0 -1  0)
  ( 0  0 -1)  ( 0  1 -1)  ( 1  0 -1)  ( 1  0  0)  ( 0 -1  0)  ( 0 -1  1)

  ( 0  1  0)  ( 0  1  0)  ( 0  1  0)  ( 0  1  0)  ( 0  1 -1)  ( 0  1 -1)
  ( 1  0  0)  ( 0  1 -1)  ( 0  0  1)  (-1  1  0)  ( 1  0 -1)  ( 0  1  0)
  ( 0  0  1)  (-1  1  0)  ( 1  0  0)  ( 0  1 -1)  ( 0  0 -1)  (-1  1  0)

  ( 0  1 -1)  ( 0  1 -1)  ( 0  0  1)  ( 0  0  1)  ( 0  0  1)  ( 0  0  1)
  ( 0  0 -1)  (-1  1  0)  ( 1  0  0)  ( 0  1  0)  ( 0 -1  1)  (-1  0  1)
  ( 1  0 -1)  ( 0  1  0)  ( 0  1  0)  ( 1  0  0)  (-1  0  1)  ( 0 -1  1)

  ( 0  0 -1)  ( 0  0 -1)  ( 0  0 -1)  ( 0  0 -1)  ( 0 -1  1)  ( 0 -1  1)
  ( 1  0 -1)  ( 0  1 -1)  ( 0 -1  0)  (-1  0  0)  ( 1 -1  0)  ( 0  0  1)
  ( 0  1 -1)  ( 1  0 -1)  (-1  0  0)  ( 0 -1  0)  ( 0 -1  0)  (-1  0  1)

  ( 0 -1  1)  ( 0 -1  1)  ( 0 -1  0)  ( 0 -1  0)  ( 0 -1  0)  ( 0 -1  0)
  ( 0 -1  0)  (-1  0  1)  ( 1 -1  0)  ( 0  0 -1)  ( 0 -1  1)  (-1  0  0)
  ( 1 -1  0)  ( 0  0  1)  ( 0 -1  1)  (-1  0  0)  ( 1 -1  0)  ( 0  0 -1)

  (-1  1  0)  (-1  1  0)  (-1  1  0)  (-1  1  0)  (-1  0  1)  (-1  0  1)
  ( 0  1  0)  ( 0  1 -1)  (-1  0  1)  (-1  0  0)  ( 0  0  1)  ( 0 -1  1)
  ( 0  1 -1)  ( 0  1  0)  (-1  0  0)  (-1  0  1)  ( 0 -1  1)  ( 0  0  1)

  (-1  0  1)  (-1  0  1)  (-1  0  0)  (-1  0  0)  (-1  0  0)  (-1  0  0)
  (-1  1  0)  (-1  0  0)  ( 0  0 -1)  ( 0 -1  0)  (-1  1  0)  (-1  0  1)
  (-1  0  0)  (-1  1  0)  ( 0 -1  0)  ( 0  0 -1)  (-1  0  1)  (-1  1  0)
Note: your k-points are not as symmetric as your crystal!

512 k-points: 8 x 8 x 8 Monkhorst-Pack grid
60 k-points in the irreducible part of the Brillouin zone
       k-points in crystal coordinates                weights
   0:     0.06250000    0.06250000   -0.06250000          6/512
   1:     0.06250000    0.06250000    0.06250000          2/512
   2:     0.18750000   -0.06250000   -0.06250000          6/512
   3:     0.18750000    0.06250000   -0.18750000         12/512
   4:     0.18750000    0.06250000   -0.06250000         12/512
   5:     0.18750000    0.06250000    0.06250000          6/512
   6:     0.18750000    0.18750000   -0.18750000          6/512
   7:     0.18750000    0.18750000   -0.06250000          6/512
   8:     0.18750000    0.18750000    0.06250000          6/512
   9:     0.18750000    0.18750000    0.18750000          2/512
          ...
  59:     0.43750000    0.43750000    0.43750000          2/512

Wave functions: Plane wave expansion
  Cutoff energy: 1200.000 eV
  Number of coefficients (min, max): 1441, 1468
  Pulay-stress correction: 0.000000 eV/Ang^3 (de/decut=0.000000)
  Using FFTW library
  ScaLapack parameters: grid=1x1, blocksize=None
  Wavefunction extrapolation:
    Improved wavefunction reuse through dual PAW basis 

Occupation numbers: Fermi-Dirac: width=0.1000 eV
 

Eigensolver
   Davidson(niter=2) 

Densities:
  Coarse grid: 24*24*24 grid
  Fine grid: 48*48*48 grid
  Total Charge: 0.000000 

Density mixing:
  Method: separate
  Backend: pulay
  Linear mixing parameter: 0.05
  Mixing with 5 old densities
  Damping of long wave oscillations: 50 

Hamiltonian:
  XC and Coulomb potentials evaluated on a 48*48*48 grid
  Using the PBE Exchange-Correlation functional
  External potential:
    NoExternalPotential
 

XC parameters: PBE with 2 nearest neighbor stencil

Memory estimate:
  Process memory now: 181.04 MiB
  Calculator: 24.01 MiB
    Density: 5.34 MiB
      Arrays: 2.74 MiB
      Localized functions: 1.55 MiB
      Mixer: 1.05 MiB
    Hamiltonian: 1.82 MiB
      Arrays: 1.79 MiB
      XC: 0.00 MiB
      Poisson: 0.00 MiB
      vbar: 0.03 MiB
    Wavefunctions: 16.85 MiB
      Arrays psit_nG: 5.38 MiB
      Eigensolver: 0.20 MiB
      Projections: 0.05 MiB
      Projectors: 9.35 MiB
      PW-descriptor: 1.87 MiB

Total number of cores used: 1

Number of atoms: 1
Number of atomic orbitals: 13
Number of bands in calculation: 4
Number of valence electrons: 3
Bands to converge: occupied

... initialized

Initializing position-dependent things.

Density initialized from atomic densities
Creating initial wave functions:
  4 bands from LCAO basis set

                
                
                
       Al       
                
                
                
                

Positions:
   0 Al     0.000000    0.000000    0.000000    ( 0.0000,  0.0000,  0.0000)

Unit cell:
           periodic     x           y           z      points  spacing
  1. axis:    yes    0.000000    1.977423    1.977423    24     0.0951
  2. axis:    yes    1.977423    0.000000    1.977423    24     0.0951
  3. axis:    yes    1.977423    1.977423    0.000000    24     0.0951

  Lengths:   2.796499   2.796499   2.796499
  Angles:   60.000000  60.000000  60.000000

Effective grid spacing dv^(1/3) = 0.1038

     iter     time        total  log10-change:
                         energy  eigst   dens
iter:   1 11:59:32    -3.719799
iter:   2 11:59:33    -3.720293  -3.85  -0.93
iter:   3 11:59:33    -3.725545  -2.97  -0.96
iter:   4 11:59:34    -3.725640  -4.43  -2.41
iter:   5 11:59:35    -3.725555c -4.85  -2.39
iter:   6 11:59:36    -3.725637c -4.49  -2.03
iter:   7 11:59:37    -3.725639c -5.95  -3.23
iter:   8 11:59:37    -3.725638c -7.24  -3.71
iter:   9 11:59:39    -3.725639c -7.87c -3.39
iter:  10 11:59:40    -3.725639c -9.82c -4.55c

Converged after 10 iterations.

Dipole moment: (0.000000, -0.000000, -0.000000) |e|*Ang

Energy contributions relative to reference atoms: (reference = -6603.423265)

Kinetic:         +5.965109
Potential:       -3.464736
External:        +0.000000
XC:              -6.212420
Entropy (-ST):   -0.010489
Local:           -0.008348
--------------------------
Free energy:     -3.730883
Extrapolated:    -3.725639

Showing only first 2 kpts
 Kpt  Band  Eigenvalues  Occupancy
  0     0     -3.39194    2.00000
  0     1     17.33042    0.00000
  0     2     18.96197    0.00000

  1     0     -3.68719    2.00000
  1     1     19.02988    0.00000
  1     2     20.47602    0.00000


Fermi level: 7.76200

No gap
System changes: cell 

Initialize ...

Al-setup:
  name: Aluminium
  id: 0292cae29f5d6237e50f6abdd43a7bdd
  Z: 13.0
  valence: 3
  core: 10
  charge: 0.0
  file: /Users/glebdovzhenko/.gpaw/gpaw-setups-0.9.20000/Al.PBE.gz
  compensation charges: gauss, rc=0.34, lmax=2
  cutoffs: 1.91(filt), 2.36(core),
  valence states:
                energy  radius
    3s(2.00)    -7.753   1.085
    3p(1.00)    -2.712   1.085
    *s          19.459   1.085
    *p          24.499   1.085
    *d           0.000   1.085

  LCAO basis set for Al:
    Name: dzp
    File: /Users/glebdovzhenko/.gpaw/gpaw-setups-0.9.20000/Al.dzp.basis.gz
    Number of radial functions: 5
    Number of spherical harmonics: 13
      l=0, rc=7.8750 Bohr: 3s-sz confined orbital
      l=1, rc=10.4219 Bohr: 3p-sz confined orbital
      l=0, rc=4.6094 Bohr: 3s-dz split-valence wave
      l=1, rc=6.2812 Bohr: 3p-dz split-valence wave
      l=2, rc=10.4219 Bohr: d-type Gaussian polarization

Reference energy: -6603.423265

Spin-paired calculation

Convergence criteria:
 Maximum [total energy] change in last 3 cyles: 0.0005 eV / electron
 Maximum integral of absolute [dens]ity change: 0.0001 electrons / valence electron
 Maximum integral of absolute [eigenst]ate change: 4e-08 eV^2 / valence electron
 Maximum number of scf [iter]ations: 333
 (Square brackets indicate name in SCF output, whereas a 'c' in
 the SCF output indicates the quantity has converged.)

Symmetries present (total): 48

  ( 1  0  0)  ( 1  0  0)  ( 1  0  0)  ( 1  0  0)  ( 1  0 -1)  ( 1  0 -1)
  ( 1  0 -1)  ( 1 -1  0)  ( 0  1  0)  ( 0  0  1)  ( 1  0  0)  ( 1 -1  0)
  ( 1 -1  0)  ( 1  0 -1)  ( 0  0  1)  ( 0  1  0)  ( 1 -1  0)  ( 1  0  0)

  ( 1  0 -1)  ( 1  0 -1)  ( 1 -1  0)  ( 1 -1  0)  ( 1 -1  0)  ( 1 -1  0)
  ( 0  1 -1)  ( 0  0 -1)  ( 1  0  0)  ( 1  0 -1)  ( 0 -1  1)  ( 0 -1  0)
  ( 0  0 -1)  ( 0  1 -1)  ( 1  0 -1)  ( 1  0  0)  ( 0 -1  0)  ( 0 -1  1)

  ( 0  1  0)  ( 0  1  0)  ( 0  1  0)  ( 0  1  0)  ( 0  1 -1)  ( 0  1 -1)
  ( 1  0  0)  ( 0  1 -1)  ( 0  0  1)  (-1  1  0)  ( 1  0 -1)  ( 0  1  0)
  ( 0  0  1)  (-1  1  0)  ( 1  0  0)  ( 0  1 -1)  ( 0  0 -1)  (-1  1  0)

  ( 0  1 -1)  ( 0  1 -1)  ( 0  0  1)  ( 0  0  1)  ( 0  0  1)  ( 0  0  1)
  ( 0  0 -1)  (-1  1  0)  ( 1  0  0)  ( 0  1  0)  ( 0 -1  1)  (-1  0  1)
  ( 1  0 -1)  ( 0  1  0)  ( 0  1  0)  ( 1  0  0)  (-1  0  1)  ( 0 -1  1)

  ( 0  0 -1)  ( 0  0 -1)  ( 0  0 -1)  ( 0  0 -1)  ( 0 -1  1)  ( 0 -1  1)
  ( 1  0 -1)  ( 0  1 -1)  ( 0 -1  0)  (-1  0  0)  ( 1 -1  0)  ( 0  0  1)
  ( 0  1 -1)  ( 1  0 -1)  (-1  0  0)  ( 0 -1  0)  ( 0 -1  0)  (-1  0  1)

  ( 0 -1  1)  ( 0 -1  1)  ( 0 -1  0)  ( 0 -1  0)  ( 0 -1  0)  ( 0 -1  0)
  ( 0 -1  0)  (-1  0  1)  ( 1 -1  0)  ( 0  0 -1)  ( 0 -1  1)  (-1  0  0)
  ( 1 -1  0)  ( 0  0  1)  ( 0 -1  1)  (-1  0  0)  ( 1 -1  0)  ( 0  0 -1)

  (-1  1  0)  (-1  1  0)  (-1  1  0)  (-1  1  0)  (-1  0  1)  (-1  0  1)
  ( 0  1  0)  ( 0  1 -1)  (-1  0  1)  (-1  0  0)  ( 0  0  1)  ( 0 -1  1)
  ( 0  1 -1)  ( 0  1  0)  (-1  0  0)  (-1  0  1)  ( 0 -1  1)  ( 0  0  1)

  (-1  0  1)  (-1  0  1)  (-1  0  0)  (-1  0  0)  (-1  0  0)  (-1  0  0)
  (-1  1  0)  (-1  0  0)  ( 0  0 -1)  ( 0 -1  0)  (-1  1  0)  (-1  0  1)
  (-1  0  0)  (-1  1  0)  ( 0 -1  0)  ( 0  0 -1)  (-1  0  1)  (-1  1  0)
Note: your k-points are not as symmetric as your crystal!

512 k-points: 8 x 8 x 8 Monkhorst-Pack grid
60 k-points in the irreducible part of the Brillouin zone
       k-points in crystal coordinates                weights
   0:     0.06250000    0.06250000   -0.06250000          6/512
   1:     0.06250000    0.06250000    0.06250000          2/512
   2:     0.18750000   -0.06250000   -0.06250000          6/512
   3:     0.18750000    0.06250000   -0.18750000         12/512
   4:     0.18750000    0.06250000   -0.06250000         12/512
   5:     0.18750000    0.06250000    0.06250000          6/512
   6:     0.18750000    0.18750000   -0.18750000          6/512
   7:     0.18750000    0.18750000   -0.06250000          6/512
   8:     0.18750000    0.18750000    0.06250000          6/512
   9:     0.18750000    0.18750000    0.18750000          2/512
          ...
  59:     0.43750000    0.43750000    0.43750000          2/512

Wave functions: Plane wave expansion
  Cutoff energy: 1200.000 eV
  Number of coefficients (min, max): 1501, 1564
  Pulay-stress correction: 0.000000 eV/Ang^3 (de/decut=0.000000)
  Using FFTW library
  ScaLapack parameters: grid=1x1, blocksize=None
  Wavefunction extrapolation:
    Improved wavefunction reuse through dual PAW basis 

Occupation numbers: Fermi-Dirac: width=0.1000 eV
 

Eigensolver
   Davidson(niter=2) 

Densities:
  Coarse grid: 24*24*24 grid
  Fine grid: 48*48*48 grid
  Total Charge: 0.000000 

Density mixing:
  Method: separate
  Backend: pulay
  Linear mixing parameter: 0.05
  Mixing with 5 old densities
  Damping of long wave oscillations: 50 

Hamiltonian:
  XC and Coulomb potentials evaluated on a 48*48*48 grid
  Using the PBE Exchange-Correlation functional
  External potential:
    NoExternalPotential
 

XC parameters: PBE with 2 nearest neighbor stencil

Memory estimate:
  Process memory now: 182.90 MiB
  Calculator: 25.13 MiB
    Density: 5.43 MiB
      Arrays: 2.74 MiB
      Localized functions: 1.64 MiB
      Mixer: 1.05 MiB
    Hamiltonian: 1.83 MiB
      Arrays: 1.79 MiB
      XC: 0.00 MiB
      Poisson: 0.00 MiB
      vbar: 0.03 MiB
    Wavefunctions: 17.87 MiB
      Arrays psit_nG: 5.73 MiB
      Eigensolver: 0.22 MiB
      Projections: 0.05 MiB
      Projectors: 9.92 MiB
      PW-descriptor: 1.96 MiB

Total number of cores used: 1

Number of atoms: 1
Number of atomic orbitals: 13
Number of bands in calculation: 4
Number of valence electrons: 3
Bands to converge: occupied

... initialized

Initializing position-dependent things.

Density initialized from atomic densities
Creating initial wave functions:
  4 bands from LCAO basis set

                
                
                
       Al       
                
                
                
                

Positions:
   0 Al     0.000000    0.000000    0.000000    ( 0.0000,  0.0000,  0.0000)

Unit cell:
           periodic     x           y           z      points  spacing
  1. axis:    yes    0.000000    2.016972    2.016972    24     0.0970
  2. axis:    yes    2.016972    0.000000    2.016972    24     0.0970
  3. axis:    yes    2.016972    2.016972    0.000000    24     0.0970

  Lengths:   2.852429   2.852429   2.852429
  Angles:   60.000000  60.000000  60.000000

Effective grid spacing dv^(1/3) = 0.1059

     iter     time        total  log10-change:
                         energy  eigst   dens
iter:   1 11:59:50    -3.741372
iter:   2 11:59:51    -3.741440  -3.83  -0.93
iter:   3 11:59:52    -3.742251c -3.11  -0.95
iter:   4 11:59:52    -3.742285c -4.62  -2.45
iter:   5 11:59:53    -3.742294c -5.74  -2.48
iter:   6 11:59:54    -3.742301c -5.53  -2.62
iter:   7 11:59:55    -3.742303c -6.35  -3.25
iter:   8 11:59:56    -3.742303c -8.10c -3.66
iter:   9 11:59:57    -3.742303c -10.08c -4.80c

Converged after 9 iterations.

Dipole moment: (-0.000000, 0.000000, 0.000000) |e|*Ang

Energy contributions relative to reference atoms: (reference = -6603.423265)

Kinetic:         +3.791777
Potential:       -1.839855
External:        +0.000000
XC:              -5.681781
Entropy (-ST):   -0.011674
Local:           -0.006607
--------------------------
Free energy:     -3.748140
Extrapolated:    -3.742303

Showing only first 2 kpts
 Kpt  Band  Eigenvalues  Occupancy
  0     0     -3.57382    2.00000
  0     1     16.43558    0.00000
  0     2     17.96366    0.00000

  1     0     -3.85772    2.00000
  1     1     18.08360    0.00000
  1     2     19.49804    0.00000


Fermi level: 7.19028

No gap
Timing:                              incl.     excl.
-----------------------------------------------------------
Hamiltonian:                         0.254     0.002   0.0% |
 Atomic:                             0.103     0.002   0.0% |
  XC Correction:                     0.101     0.101   0.2% |
 Calculate atomic Hamiltonians:      0.004     0.004   0.0% |
 Communicate:                        0.000     0.000   0.0% |
 Initialize Hamiltonian:             0.000     0.000   0.0% |
 Poisson:                            0.001     0.001   0.0% |
 XC 3D grid:                         0.144     0.144   0.2% |
LCAO initialization:                34.025     0.257   0.4% |
 LCAO eigensolver:                  13.263     0.009   0.0% |
  Calculate projections:             0.005     0.005   0.0% |
  DenseAtomicCorrection:             0.019     0.019   0.0% |
  Distribute overlap matrix:         0.004     0.004   0.0% |
  Orbital Layouts:                   0.039     0.039   0.1% |
  Potential matrix:                 13.090    13.090  20.1% |-------|
  Sum over cells:                    0.097     0.097   0.1% |
 LCAO to grid:                      18.508    18.508  28.4% |----------|
 Set positions (LCAO WFS):           1.996     0.245   0.4% |
  Basic WFS set positions:           0.005     0.005   0.0% |
  Basis functions set positions:     0.000     0.000   0.0% |
  P tci:                             0.319     0.319   0.5% |
  ST tci:                            1.322     1.322   2.0% ||
  mktci:                             0.105     0.105   0.2% |
PWDescriptor:                        0.092     0.092   0.1% |
SCF-cycle:                          29.056     0.398   0.6% |
 Davidson:                          23.826     4.113   6.3% |--|
  Apply H:                           3.658     3.516   5.4% |-|
   HMM T:                            0.142     0.142   0.2% |
  Subspace diag:                     4.972     0.157   0.2% |
   calc_h_matrix:                    4.139     0.450   0.7% |
    Apply H:                         3.689     3.546   5.4% |-|
     HMM T:                          0.143     0.143   0.2% |
   diagonalize:                      0.268     0.268   0.4% |
   rotate_psi:                       0.407     0.407   0.6% |
  calc. matrices:                    9.935     2.642   4.0% |-|
   Apply H:                          7.293     7.026  10.8% |---|
    HMM T:                           0.267     0.267   0.4% |
  diagonalize:                       0.435     0.435   0.7% |
  rotate_psi:                        0.713     0.713   1.1% |
 Density:                            2.194     0.001   0.0% |
  Atomic density matrices:           0.051     0.051   0.1% |
  Mix:                               0.142     0.142   0.2% |
  Multipole moments:                 0.002     0.002   0.0% |
  Pseudo density:                    1.998     1.399   2.1% ||
   Symmetrize density:               0.599     0.599   0.9% |
 Hamiltonian:                        2.502     0.018   0.0% |
  Atomic:                            1.206     0.018   0.0% |
   XC Correction:                    1.188     1.188   1.8% ||
  Calculate atomic Hamiltonians:     0.044     0.044   0.1% |
  Communicate:                       0.000     0.000   0.0% |
  Poisson:                           0.011     0.011   0.0% |
  XC 3D grid:                        1.223     1.223   1.9% ||
 Orthonormalize:                     0.135     0.015   0.0% |
  calc_s_matrix:                     0.028     0.028   0.0% |
  inverse-cholesky:                  0.014     0.014   0.0% |
  projections:                       0.057     0.057   0.1% |
  rotate_psi_s:                      0.021     0.021   0.0% |
Set symmetry:                        0.149     0.149   0.2% |
Other:                               1.691     1.691   2.6% ||
-----------------------------------------------------------
Total:                                        65.266 100.0%

Memory usage: 183.62 MiB
Date: Sat Apr  9 11:59:57 2022
