
  ___ ___ ___ _ _ _  
 |   |   |_  | | | | 
 | | | | | . | | | | 
 |__ |  _|___|_____|  22.1.0
 |___|_|             

User:   glebdovzhenko@Glebs.local
Date:   Sat Apr  9 11:32:14 2022
Arch:   x86_64
Pid:    43308
Python: 3.9.12
gpaw:   /Users/glebdovzhenko/Dropbox/PycharmProjects/DFT/venv/lib/python3.9/site-packages/gpaw
_gpaw:  /Users/glebdovzhenko/Dropbox/PycharmProjects/DFT/venv/lib/python3.9/site-packages/
        _gpaw.cpython-39-darwin.so
ase:    /Users/glebdovzhenko/Dropbox/PycharmProjects/DFT/venv/lib/python3.9/site-packages/ase (version 3.22.1)
numpy:  /Users/glebdovzhenko/Dropbox/PycharmProjects/DFT/venv/lib/python3.9/site-packages/numpy (version 1.22.3)
scipy:  /Users/glebdovzhenko/Dropbox/PycharmProjects/DFT/venv/lib/python3.9/site-packages/scipy (version 1.8.0)
libxc:  5.2.2
units:  Angstrom and eV
cores: 1
OpenMP: False
OMP_NUM_THREADS: 1

Input parameters:
  kpts: [14 14 14]

System changes: cell 

Initialize ...

Al-setup:
  name: Aluminium
  id: 0292cae29f5d6237e50f6abdd43a7bdd
  Z: 13.0
  valence: 3
  core: 10
  charge: 0.0
  file: /Users/glebdovzhenko/.gpaw/gpaw-setups-0.9.20000/Al.PBE.gz
  compensation charges: gauss, rc=0.34, lmax=2
  cutoffs: 1.91(filt), 2.36(core),
  valence states:
                energy  radius
    3s(2.00)    -7.753   1.085
    3p(1.00)    -2.712   1.085
    *s          19.459   1.085
    *p          24.499   1.085
    *d           0.000   1.085

  LCAO basis set for Al:
    Name: dzp
    File: /Users/glebdovzhenko/.gpaw/gpaw-setups-0.9.20000/Al.dzp.basis.gz
    Number of radial functions: 5
    Number of spherical harmonics: 13
      l=0, rc=7.8750 Bohr: 3s-sz confined orbital
      l=1, rc=10.4219 Bohr: 3p-sz confined orbital
      l=0, rc=4.6094 Bohr: 3s-dz split-valence wave
      l=1, rc=6.2812 Bohr: 3p-dz split-valence wave
      l=2, rc=10.4219 Bohr: d-type Gaussian polarization

Reference energy: -6603.423265

Spin-paired calculation

Convergence criteria:
 Maximum [total energy] change in last 3 cyles: 0.0005 eV / electron
 Maximum integral of absolute [dens]ity change: 0.0001 electrons / valence electron
 Maximum integral of absolute [eigenst]ate change: 4e-08 eV^2 / valence electron
 Maximum number of scf [iter]ations: 333
 (Square brackets indicate name in SCF output, whereas a 'c' in
 the SCF output indicates the quantity has converged.)

Symmetries present (total): 48

  ( 1  0  0)  ( 1  0  0)  ( 1  0  0)  ( 1  0  0)  ( 1  0 -1)  ( 1  0 -1)
  ( 1  0 -1)  ( 1 -1  0)  ( 0  1  0)  ( 0  0  1)  ( 1  0  0)  ( 1 -1  0)
  ( 1 -1  0)  ( 1  0 -1)  ( 0  0  1)  ( 0  1  0)  ( 1 -1  0)  ( 1  0  0)

  ( 1  0 -1)  ( 1  0 -1)  ( 1 -1  0)  ( 1 -1  0)  ( 1 -1  0)  ( 1 -1  0)
  ( 0  1 -1)  ( 0  0 -1)  ( 1  0  0)  ( 1  0 -1)  ( 0 -1  1)  ( 0 -1  0)
  ( 0  0 -1)  ( 0  1 -1)  ( 1  0 -1)  ( 1  0  0)  ( 0 -1  0)  ( 0 -1  1)

  ( 0  1  0)  ( 0  1  0)  ( 0  1  0)  ( 0  1  0)  ( 0  1 -1)  ( 0  1 -1)
  ( 1  0  0)  ( 0  1 -1)  ( 0  0  1)  (-1  1  0)  ( 1  0 -1)  ( 0  1  0)
  ( 0  0  1)  (-1  1  0)  ( 1  0  0)  ( 0  1 -1)  ( 0  0 -1)  (-1  1  0)

  ( 0  1 -1)  ( 0  1 -1)  ( 0  0  1)  ( 0  0  1)  ( 0  0  1)  ( 0  0  1)
  ( 0  0 -1)  (-1  1  0)  ( 1  0  0)  ( 0  1  0)  ( 0 -1  1)  (-1  0  1)
  ( 1  0 -1)  ( 0  1  0)  ( 0  1  0)  ( 1  0  0)  (-1  0  1)  ( 0 -1  1)

  ( 0  0 -1)  ( 0  0 -1)  ( 0  0 -1)  ( 0  0 -1)  ( 0 -1  1)  ( 0 -1  1)
  ( 1  0 -1)  ( 0  1 -1)  ( 0 -1  0)  (-1  0  0)  ( 1 -1  0)  ( 0  0  1)
  ( 0  1 -1)  ( 1  0 -1)  (-1  0  0)  ( 0 -1  0)  ( 0 -1  0)  (-1  0  1)

  ( 0 -1  1)  ( 0 -1  1)  ( 0 -1  0)  ( 0 -1  0)  ( 0 -1  0)  ( 0 -1  0)
  ( 0 -1  0)  (-1  0  1)  ( 1 -1  0)  ( 0  0 -1)  ( 0 -1  1)  (-1  0  0)
  ( 1 -1  0)  ( 0  0  1)  ( 0 -1  1)  (-1  0  0)  ( 1 -1  0)  ( 0  0 -1)

  (-1  1  0)  (-1  1  0)  (-1  1  0)  (-1  1  0)  (-1  0  1)  (-1  0  1)
  ( 0  1  0)  ( 0  1 -1)  (-1  0  1)  (-1  0  0)  ( 0  0  1)  ( 0 -1  1)
  ( 0  1 -1)  ( 0  1  0)  (-1  0  0)  (-1  0  1)  ( 0 -1  1)  ( 0  0  1)

  (-1  0  1)  (-1  0  1)  (-1  0  0)  (-1  0  0)  (-1  0  0)  (-1  0  0)
  (-1  1  0)  (-1  0  0)  ( 0  0 -1)  ( 0 -1  0)  (-1  1  0)  (-1  0  1)
  (-1  0  0)  (-1  1  0)  ( 0 -1  0)  ( 0  0 -1)  (-1  0  1)  (-1  1  0)
Note: your k-points are not as symmetric as your crystal!

2744 k-points: 14 x 14 x 14 Monkhorst-Pack grid
280 k-points in the irreducible part of the Brillouin zone
       k-points in crystal coordinates                weights
   0:     0.03571429    0.03571429   -0.03571429          6/2744
   1:     0.03571429    0.03571429    0.03571429          2/2744
   2:     0.10714286   -0.03571429   -0.03571429          6/2744
   3:     0.10714286    0.03571429   -0.10714286         12/2744
   4:     0.10714286    0.03571429   -0.03571429         12/2744
   5:     0.10714286    0.03571429    0.03571429          6/2744
   6:     0.10714286    0.10714286   -0.10714286          6/2744
   7:     0.10714286    0.10714286   -0.03571429          6/2744
   8:     0.10714286    0.10714286    0.03571429          6/2744
   9:     0.10714286    0.10714286    0.10714286          2/2744
          ...
 279:     0.46428571    0.46428571    0.46428571          2/2744

Wave functions: Plane wave expansion
  Cutoff energy: 400.000 eV
  Number of coefficients (min, max): 268, 289
  Pulay-stress correction: 0.000000 eV/Ang^3 (de/decut=0.000000)
  Using FFTW library
  ScaLapack parameters: grid=1x1, blocksize=None
  Wavefunction extrapolation:
    Improved wavefunction reuse through dual PAW basis 

Occupation numbers: Fermi-Dirac: width=0.1000 eV
 

Eigensolver
   Davidson(niter=2) 

Densities:
  Coarse grid: 14*14*14 grid
  Fine grid: 28*28*28 grid
  Total Charge: 0.000000 

Density mixing:
  Method: separate
  Backend: pulay
  Linear mixing parameter: 0.05
  Mixing with 5 old densities
  Damping of long wave oscillations: 50 

Hamiltonian:
  XC and Coulomb potentials evaluated on a 28*28*28 grid
  Using the PBE Exchange-Correlation functional
  External potential:
    NoExternalPotential
 

XC parameters: PBE with 2 nearest neighbor stencil

Memory estimate:
  Process memory now: 182.50 MiB
  Calculator: 16.17 MiB
    Density: 1.04 MiB
      Arrays: 0.54 MiB
      Localized functions: 0.29 MiB
      Mixer: 0.21 MiB
    Hamiltonian: 0.36 MiB
      Arrays: 0.36 MiB
      XC: 0.00 MiB
      Poisson: 0.00 MiB
      vbar: 0.01 MiB
    Wavefunctions: 14.77 MiB
      Arrays psit_nG: 4.94 MiB
      Eigensolver: 0.04 MiB
      Projections: 0.22 MiB
      Projectors: 8.22 MiB
      PW-descriptor: 1.34 MiB

Total number of cores used: 1

Number of atoms: 1
Number of atomic orbitals: 13
Number of bands in calculation: 4
Number of valence electrons: 3
Bands to converge: occupied

... initialized

Initializing position-dependent things.

Density initialized from atomic densities
Creating initial wave functions:
  4 bands from LCAO basis set

                
                
                
       Al       
                
                
                
                

Positions:
   0 Al     0.000000    0.000000    0.000000    ( 0.0000,  0.0000,  0.0000)

Unit cell:
           periodic     x           y           z      points  spacing
  1. axis:    yes    0.000000    1.962842    1.962842    14     0.1619
  2. axis:    yes    1.962842    0.000000    1.962842    14     0.1619
  3. axis:    yes    1.962842    1.962842    0.000000    14     0.1619

  Lengths:   2.775878   2.775878   2.775878
  Angles:   60.000000  60.000000  60.000000

Effective grid spacing dv^(1/3) = 0.1766

     iter     time        total  log10-change:
                         energy  eigst   dens
iter:   1 11:32:22    -3.692589
iter:   2 11:32:23    -3.693310  -3.88  -0.94
iter:   3 11:32:24    -3.700875  -2.93  -0.96
iter:   4 11:32:25    -3.700967  -4.50  -2.42
iter:   5 11:32:26    -3.700704c -4.49  -2.39
iter:   6 11:32:27    -3.700961c -4.31  -1.90
iter:   7 11:32:28    -3.700962c -6.01  -3.33
iter:   8 11:32:29    -3.700959c -7.25  -3.73
iter:   9 11:32:30    -3.700962c -6.83  -3.24
iter:  10 11:32:31    -3.700962c -8.66c -4.61c

Converged after 10 iterations.

Dipole moment: (-0.000000, -0.000000, -0.000000) |e|*Ang

Energy contributions relative to reference atoms: (reference = -6603.423265)

Kinetic:         +6.958251
Potential:       -4.216665
External:        +0.000000
XC:              -6.426778
Entropy (-ST):   -0.014024
Local:           -0.008759
--------------------------
Free energy:     -3.707974
Extrapolated:    -3.700962

Showing only first 2 kpts
 Kpt  Band  Eigenvalues  Occupancy
  0     0     -3.59710    2.00000
  0     1     19.49340    0.00000
  0     2     20.29580    0.00000

  1     0     -3.69506    2.00000
  1     1     20.40715    0.00000
  1     2     21.03666    0.00000


Fermi level: 8.04326

No gap
System changes: cell 

Initialize ...

Al-setup:
  name: Aluminium
  id: 0292cae29f5d6237e50f6abdd43a7bdd
  Z: 13.0
  valence: 3
  core: 10
  charge: 0.0
  file: /Users/glebdovzhenko/.gpaw/gpaw-setups-0.9.20000/Al.PBE.gz
  compensation charges: gauss, rc=0.34, lmax=2
  cutoffs: 1.91(filt), 2.36(core),
  valence states:
                energy  radius
    3s(2.00)    -7.753   1.085
    3p(1.00)    -2.712   1.085
    *s          19.459   1.085
    *p          24.499   1.085
    *d           0.000   1.085

  LCAO basis set for Al:
    Name: dzp
    File: /Users/glebdovzhenko/.gpaw/gpaw-setups-0.9.20000/Al.dzp.basis.gz
    Number of radial functions: 5
    Number of spherical harmonics: 13
      l=0, rc=7.8750 Bohr: 3s-sz confined orbital
      l=1, rc=10.4219 Bohr: 3p-sz confined orbital
      l=0, rc=4.6094 Bohr: 3s-dz split-valence wave
      l=1, rc=6.2812 Bohr: 3p-dz split-valence wave
      l=2, rc=10.4219 Bohr: d-type Gaussian polarization

Reference energy: -6603.423265

Spin-paired calculation

Convergence criteria:
 Maximum [total energy] change in last 3 cyles: 0.0005 eV / electron
 Maximum integral of absolute [dens]ity change: 0.0001 electrons / valence electron
 Maximum integral of absolute [eigenst]ate change: 4e-08 eV^2 / valence electron
 Maximum number of scf [iter]ations: 333
 (Square brackets indicate name in SCF output, whereas a 'c' in
 the SCF output indicates the quantity has converged.)

Symmetries present (total): 48

  ( 1  0  0)  ( 1  0  0)  ( 1  0  0)  ( 1  0  0)  ( 1  0 -1)  ( 1  0 -1)
  ( 1  0 -1)  ( 1 -1  0)  ( 0  1  0)  ( 0  0  1)  ( 1  0  0)  ( 1 -1  0)
  ( 1 -1  0)  ( 1  0 -1)  ( 0  0  1)  ( 0  1  0)  ( 1 -1  0)  ( 1  0  0)

  ( 1  0 -1)  ( 1  0 -1)  ( 1 -1  0)  ( 1 -1  0)  ( 1 -1  0)  ( 1 -1  0)
  ( 0  1 -1)  ( 0  0 -1)  ( 1  0  0)  ( 1  0 -1)  ( 0 -1  1)  ( 0 -1  0)
  ( 0  0 -1)  ( 0  1 -1)  ( 1  0 -1)  ( 1  0  0)  ( 0 -1  0)  ( 0 -1  1)

  ( 0  1  0)  ( 0  1  0)  ( 0  1  0)  ( 0  1  0)  ( 0  1 -1)  ( 0  1 -1)
  ( 1  0  0)  ( 0  1 -1)  ( 0  0  1)  (-1  1  0)  ( 1  0 -1)  ( 0  1  0)
  ( 0  0  1)  (-1  1  0)  ( 1  0  0)  ( 0  1 -1)  ( 0  0 -1)  (-1  1  0)

  ( 0  1 -1)  ( 0  1 -1)  ( 0  0  1)  ( 0  0  1)  ( 0  0  1)  ( 0  0  1)
  ( 0  0 -1)  (-1  1  0)  ( 1  0  0)  ( 0  1  0)  ( 0 -1  1)  (-1  0  1)
  ( 1  0 -1)  ( 0  1  0)  ( 0  1  0)  ( 1  0  0)  (-1  0  1)  ( 0 -1  1)

  ( 0  0 -1)  ( 0  0 -1)  ( 0  0 -1)  ( 0  0 -1)  ( 0 -1  1)  ( 0 -1  1)
  ( 1  0 -1)  ( 0  1 -1)  ( 0 -1  0)  (-1  0  0)  ( 1 -1  0)  ( 0  0  1)
  ( 0  1 -1)  ( 1  0 -1)  (-1  0  0)  ( 0 -1  0)  ( 0 -1  0)  (-1  0  1)

  ( 0 -1  1)  ( 0 -1  1)  ( 0 -1  0)  ( 0 -1  0)  ( 0 -1  0)  ( 0 -1  0)
  ( 0 -1  0)  (-1  0  1)  ( 1 -1  0)  ( 0  0 -1)  ( 0 -1  1)  (-1  0  0)
  ( 1 -1  0)  ( 0  0  1)  ( 0 -1  1)  (-1  0  0)  ( 1 -1  0)  ( 0  0 -1)

  (-1  1  0)  (-1  1  0)  (-1  1  0)  (-1  1  0)  (-1  0  1)  (-1  0  1)
  ( 0  1  0)  ( 0  1 -1)  (-1  0  1)  (-1  0  0)  ( 0  0  1)  ( 0 -1  1)
  ( 0  1 -1)  ( 0  1  0)  (-1  0  0)  (-1  0  1)  ( 0 -1  1)  ( 0  0  1)

  (-1  0  1)  (-1  0  1)  (-1  0  0)  (-1  0  0)  (-1  0  0)  (-1  0  0)
  (-1  1  0)  (-1  0  0)  ( 0  0 -1)  ( 0 -1  0)  (-1  1  0)  (-1  0  1)
  (-1  0  0)  (-1  1  0)  ( 0 -1  0)  ( 0  0 -1)  (-1  0  1)  (-1  1  0)
Note: your k-points are not as symmetric as your crystal!

2744 k-points: 14 x 14 x 14 Monkhorst-Pack grid
280 k-points in the irreducible part of the Brillouin zone
       k-points in crystal coordinates                weights
   0:     0.03571429    0.03571429   -0.03571429          6/2744
   1:     0.03571429    0.03571429    0.03571429          2/2744
   2:     0.10714286   -0.03571429   -0.03571429          6/2744
   3:     0.10714286    0.03571429   -0.10714286         12/2744
   4:     0.10714286    0.03571429   -0.03571429         12/2744
   5:     0.10714286    0.03571429    0.03571429          6/2744
   6:     0.10714286    0.10714286   -0.10714286          6/2744
   7:     0.10714286    0.10714286   -0.03571429          6/2744
   8:     0.10714286    0.10714286    0.03571429          6/2744
   9:     0.10714286    0.10714286    0.10714286          2/2744
          ...
 279:     0.46428571    0.46428571    0.46428571          2/2744

Wave functions: Plane wave expansion
  Cutoff energy: 400.000 eV
  Number of coefficients (min, max): 254, 281
  Pulay-stress correction: 0.000000 eV/Ang^3 (de/decut=0.000000)
  Using FFTW library
  ScaLapack parameters: grid=1x1, blocksize=None
  Wavefunction extrapolation:
    Improved wavefunction reuse through dual PAW basis 

Occupation numbers: Fermi-Dirac: width=0.1000 eV
 

Eigensolver
   Davidson(niter=2) 

Densities:
  Coarse grid: 14*14*14 grid
  Fine grid: 28*28*28 grid
  Total Charge: 0.000000 

Density mixing:
  Method: separate
  Backend: pulay
  Linear mixing parameter: 0.05
  Mixing with 5 old densities
  Damping of long wave oscillations: 50 

Hamiltonian:
  XC and Coulomb potentials evaluated on a 28*28*28 grid
  Using the PBE Exchange-Correlation functional
  External potential:
    NoExternalPotential
 

XC parameters: PBE with 2 nearest neighbor stencil

Memory estimate:
  Process memory now: 189.58 MiB
  Calculator: 15.75 MiB
    Density: 1.03 MiB
      Arrays: 0.54 MiB
      Localized functions: 0.28 MiB
      Mixer: 0.21 MiB
    Hamiltonian: 0.36 MiB
      Arrays: 0.36 MiB
      XC: 0.00 MiB
      Poisson: 0.00 MiB
      vbar: 0.01 MiB
    Wavefunctions: 14.35 MiB
      Arrays psit_nG: 4.80 MiB
      Eigensolver: 0.04 MiB
      Projections: 0.22 MiB
      Projectors: 7.98 MiB
      PW-descriptor: 1.31 MiB

Total number of cores used: 1

Number of atoms: 1
Number of atomic orbitals: 13
Number of bands in calculation: 4
Number of valence electrons: 3
Bands to converge: occupied

... initialized

Initializing position-dependent things.

Density initialized from atomic densities
Creating initial wave functions:
  4 bands from LCAO basis set

                
                
                
       Al       
                
                
                
                

Positions:
   0 Al     0.000000    0.000000    0.000000    ( 0.0000,  0.0000,  0.0000)

Unit cell:
           periodic     x           y           z      points  spacing
  1. axis:    yes    0.000000    1.943213    1.943213    14     0.1603
  2. axis:    yes    1.943213    0.000000    1.943213    14     0.1603
  3. axis:    yes    1.943213    1.943213    0.000000    14     0.1603

  Lengths:   2.748119   2.748119   2.748119
  Angles:   60.000000  60.000000  60.000000

Effective grid spacing dv^(1/3) = 0.1749

     iter     time        total  log10-change:
                         energy  eigst   dens
iter:   1 11:32:39    -3.661114
iter:   2 11:32:40    -3.662071  -3.91  -0.94
iter:   3 11:32:41    -3.672196  -2.87  -0.96
iter:   4 11:32:42    -3.672312  -4.52  -2.40
iter:   5 11:32:43    -3.672169c -4.75  -2.37
iter:   6 11:32:44    -3.672295c -4.54  -1.91
iter:   7 11:32:45    -3.672296c -6.34  -3.57
iter:   8 11:32:46    -3.672291c -6.96  -3.74
iter:   9 11:32:47    -3.672296c -6.67  -3.18
iter:  10 11:32:48    -3.672296c -8.47c -4.75c

Converged after 10 iterations.

Dipole moment: (0.000000, -0.000000, -0.000000) |e|*Ang

Energy contributions relative to reference atoms: (reference = -6603.423265)

Kinetic:         +8.232393
Potential:       -5.173893
External:        +0.000000
XC:              -6.714101
Entropy (-ST):   -0.013684
Local:           -0.009853
--------------------------
Free energy:     -3.679138
Extrapolated:    -3.672296

Showing only first 2 kpts
 Kpt  Band  Eigenvalues  Occupancy
  0     0     -3.50241    2.00000
  0     1     19.98847    0.00000
  0     2     20.81746    0.00000

  1     0     -3.60234    2.00000
  1     1     20.90848    0.00000
  1     2     21.53621    0.00000


Fermi level: 8.35678

No gap
System changes: cell 

Initialize ...

Al-setup:
  name: Aluminium
  id: 0292cae29f5d6237e50f6abdd43a7bdd
  Z: 13.0
  valence: 3
  core: 10
  charge: 0.0
  file: /Users/glebdovzhenko/.gpaw/gpaw-setups-0.9.20000/Al.PBE.gz
  compensation charges: gauss, rc=0.34, lmax=2
  cutoffs: 1.91(filt), 2.36(core),
  valence states:
                energy  radius
    3s(2.00)    -7.753   1.085
    3p(1.00)    -2.712   1.085
    *s          19.459   1.085
    *p          24.499   1.085
    *d           0.000   1.085

  LCAO basis set for Al:
    Name: dzp
    File: /Users/glebdovzhenko/.gpaw/gpaw-setups-0.9.20000/Al.dzp.basis.gz
    Number of radial functions: 5
    Number of spherical harmonics: 13
      l=0, rc=7.8750 Bohr: 3s-sz confined orbital
      l=1, rc=10.4219 Bohr: 3p-sz confined orbital
      l=0, rc=4.6094 Bohr: 3s-dz split-valence wave
      l=1, rc=6.2812 Bohr: 3p-dz split-valence wave
      l=2, rc=10.4219 Bohr: d-type Gaussian polarization

Reference energy: -6603.423265

Spin-paired calculation

Convergence criteria:
 Maximum [total energy] change in last 3 cyles: 0.0005 eV / electron
 Maximum integral of absolute [dens]ity change: 0.0001 electrons / valence electron
 Maximum integral of absolute [eigenst]ate change: 4e-08 eV^2 / valence electron
 Maximum number of scf [iter]ations: 333
 (Square brackets indicate name in SCF output, whereas a 'c' in
 the SCF output indicates the quantity has converged.)

Symmetries present (total): 48

  ( 1  0  0)  ( 1  0  0)  ( 1  0  0)  ( 1  0  0)  ( 1  0 -1)  ( 1  0 -1)
  ( 1  0 -1)  ( 1 -1  0)  ( 0  1  0)  ( 0  0  1)  ( 1  0  0)  ( 1 -1  0)
  ( 1 -1  0)  ( 1  0 -1)  ( 0  0  1)  ( 0  1  0)  ( 1 -1  0)  ( 1  0  0)

  ( 1  0 -1)  ( 1  0 -1)  ( 1 -1  0)  ( 1 -1  0)  ( 1 -1  0)  ( 1 -1  0)
  ( 0  1 -1)  ( 0  0 -1)  ( 1  0  0)  ( 1  0 -1)  ( 0 -1  1)  ( 0 -1  0)
  ( 0  0 -1)  ( 0  1 -1)  ( 1  0 -1)  ( 1  0  0)  ( 0 -1  0)  ( 0 -1  1)

  ( 0  1  0)  ( 0  1  0)  ( 0  1  0)  ( 0  1  0)  ( 0  1 -1)  ( 0  1 -1)
  ( 1  0  0)  ( 0  1 -1)  ( 0  0  1)  (-1  1  0)  ( 1  0 -1)  ( 0  1  0)
  ( 0  0  1)  (-1  1  0)  ( 1  0  0)  ( 0  1 -1)  ( 0  0 -1)  (-1  1  0)

  ( 0  1 -1)  ( 0  1 -1)  ( 0  0  1)  ( 0  0  1)  ( 0  0  1)  ( 0  0  1)
  ( 0  0 -1)  (-1  1  0)  ( 1  0  0)  ( 0  1  0)  ( 0 -1  1)  (-1  0  1)
  ( 1  0 -1)  ( 0  1  0)  ( 0  1  0)  ( 1  0  0)  (-1  0  1)  ( 0 -1  1)

  ( 0  0 -1)  ( 0  0 -1)  ( 0  0 -1)  ( 0  0 -1)  ( 0 -1  1)  ( 0 -1  1)
  ( 1  0 -1)  ( 0  1 -1)  ( 0 -1  0)  (-1  0  0)  ( 1 -1  0)  ( 0  0  1)
  ( 0  1 -1)  ( 1  0 -1)  (-1  0  0)  ( 0 -1  0)  ( 0 -1  0)  (-1  0  1)

  ( 0 -1  1)  ( 0 -1  1)  ( 0 -1  0)  ( 0 -1  0)  ( 0 -1  0)  ( 0 -1  0)
  ( 0 -1  0)  (-1  0  1)  ( 1 -1  0)  ( 0  0 -1)  ( 0 -1  1)  (-1  0  0)
  ( 1 -1  0)  ( 0  0  1)  ( 0 -1  1)  (-1  0  0)  ( 1 -1  0)  ( 0  0 -1)

  (-1  1  0)  (-1  1  0)  (-1  1  0)  (-1  1  0)  (-1  0  1)  (-1  0  1)
  ( 0  1  0)  ( 0  1 -1)  (-1  0  1)  (-1  0  0)  ( 0  0  1)  ( 0 -1  1)
  ( 0  1 -1)  ( 0  1  0)  (-1  0  0)  (-1  0  1)  ( 0 -1  1)  ( 0  0  1)

  (-1  0  1)  (-1  0  1)  (-1  0  0)  (-1  0  0)  (-1  0  0)  (-1  0  0)
  (-1  1  0)  (-1  0  0)  ( 0  0 -1)  ( 0 -1  0)  (-1  1  0)  (-1  0  1)
  (-1  0  0)  (-1  1  0)  ( 0 -1  0)  ( 0  0 -1)  (-1  0  1)  (-1  1  0)
Note: your k-points are not as symmetric as your crystal!

2744 k-points: 14 x 14 x 14 Monkhorst-Pack grid
280 k-points in the irreducible part of the Brillouin zone
       k-points in crystal coordinates                weights
   0:     0.03571429    0.03571429   -0.03571429          6/2744
   1:     0.03571429    0.03571429    0.03571429          2/2744
   2:     0.10714286   -0.03571429   -0.03571429          6/2744
   3:     0.10714286    0.03571429   -0.10714286         12/2744
   4:     0.10714286    0.03571429   -0.03571429         12/2744
   5:     0.10714286    0.03571429    0.03571429          6/2744
   6:     0.10714286    0.10714286   -0.10714286          6/2744
   7:     0.10714286    0.10714286   -0.03571429          6/2744
   8:     0.10714286    0.10714286    0.03571429          6/2744
   9:     0.10714286    0.10714286    0.10714286          2/2744
          ...
 279:     0.46428571    0.46428571    0.46428571          2/2744

Wave functions: Plane wave expansion
  Cutoff energy: 400.000 eV
  Number of coefficients (min, max): 268, 289
  Pulay-stress correction: 0.000000 eV/Ang^3 (de/decut=0.000000)
  Using FFTW library
  ScaLapack parameters: grid=1x1, blocksize=None
  Wavefunction extrapolation:
    Improved wavefunction reuse through dual PAW basis 

Occupation numbers: Fermi-Dirac: width=0.1000 eV
 

Eigensolver
   Davidson(niter=2) 

Densities:
  Coarse grid: 14*14*14 grid
  Fine grid: 28*28*28 grid
  Total Charge: 0.000000 

Density mixing:
  Method: separate
  Backend: pulay
  Linear mixing parameter: 0.05
  Mixing with 5 old densities
  Damping of long wave oscillations: 50 

Hamiltonian:
  XC and Coulomb potentials evaluated on a 28*28*28 grid
  Using the PBE Exchange-Correlation functional
  External potential:
    NoExternalPotential
 

XC parameters: PBE with 2 nearest neighbor stencil

Memory estimate:
  Process memory now: 189.68 MiB
  Calculator: 16.17 MiB
    Density: 1.04 MiB
      Arrays: 0.54 MiB
      Localized functions: 0.29 MiB
      Mixer: 0.21 MiB
    Hamiltonian: 0.36 MiB
      Arrays: 0.36 MiB
      XC: 0.00 MiB
      Poisson: 0.00 MiB
      vbar: 0.01 MiB
    Wavefunctions: 14.77 MiB
      Arrays psit_nG: 4.94 MiB
      Eigensolver: 0.04 MiB
      Projections: 0.22 MiB
      Projectors: 8.22 MiB
      PW-descriptor: 1.34 MiB

Total number of cores used: 1

Number of atoms: 1
Number of atomic orbitals: 13
Number of bands in calculation: 4
Number of valence electrons: 3
Bands to converge: occupied

... initialized

Initializing position-dependent things.

Density initialized from atomic densities
Creating initial wave functions:
  4 bands from LCAO basis set

                
                
                
       Al       
                
                
                
                

Positions:
   0 Al     0.000000    0.000000    0.000000    ( 0.0000,  0.0000,  0.0000)

Unit cell:
           periodic     x           y           z      points  spacing
  1. axis:    yes    0.000000    1.962646    1.962646    14     0.1619
  2. axis:    yes    1.962646    0.000000    1.962646    14     0.1619
  3. axis:    yes    1.962646    1.962646    0.000000    14     0.1619

  Lengths:   2.775600   2.775600   2.775600
  Angles:   60.000000  60.000000  60.000000

Effective grid spacing dv^(1/3) = 0.1766

     iter     time        total  log10-change:
                         energy  eigst   dens
iter:   1 11:32:56    -3.692323
iter:   2 11:32:57    -3.693045  -3.88  -0.94
iter:   3 11:32:58    -3.700636  -2.93  -0.96
iter:   4 11:32:59    -3.700728  -4.50  -2.42
iter:   5 11:32:59    -3.700462c -4.49  -2.39
iter:   6 11:33:00    -3.700721c -4.31  -1.90
iter:   7 11:33:01    -3.700722c -6.01  -3.33
iter:   8 11:33:02    -3.700720c -7.26  -3.73
iter:   9 11:33:03    -3.700723c -6.83  -3.25
iter:  10 11:33:04    -3.700723c -8.65c -4.61c

Converged after 10 iterations.

Dipole moment: (0.000000, 0.000000, 0.000000) |e|*Ang

Energy contributions relative to reference atoms: (reference = -6603.423265)

Kinetic:         +6.970527
Potential:       -4.225874
External:        +0.000000
XC:              -6.429596
Entropy (-ST):   -0.014021
Local:           -0.008769
--------------------------
Free energy:     -3.707733
Extrapolated:    -3.700723

Showing only first 2 kpts
 Kpt  Band  Eigenvalues  Occupancy
  0     0     -3.59618    2.00000
  0     1     19.49829    0.00000
  0     2     20.30095    0.00000

  1     0     -3.69416    2.00000
  1     1     20.41210    0.00000
  1     2     21.04159    0.00000


Fermi level: 8.04635

No gap
System changes: cell 

Initialize ...

Al-setup:
  name: Aluminium
  id: 0292cae29f5d6237e50f6abdd43a7bdd
  Z: 13.0
  valence: 3
  core: 10
  charge: 0.0
  file: /Users/glebdovzhenko/.gpaw/gpaw-setups-0.9.20000/Al.PBE.gz
  compensation charges: gauss, rc=0.34, lmax=2
  cutoffs: 1.91(filt), 2.36(core),
  valence states:
                energy  radius
    3s(2.00)    -7.753   1.085
    3p(1.00)    -2.712   1.085
    *s          19.459   1.085
    *p          24.499   1.085
    *d           0.000   1.085

  LCAO basis set for Al:
    Name: dzp
    File: /Users/glebdovzhenko/.gpaw/gpaw-setups-0.9.20000/Al.dzp.basis.gz
    Number of radial functions: 5
    Number of spherical harmonics: 13
      l=0, rc=7.8750 Bohr: 3s-sz confined orbital
      l=1, rc=10.4219 Bohr: 3p-sz confined orbital
      l=0, rc=4.6094 Bohr: 3s-dz split-valence wave
      l=1, rc=6.2812 Bohr: 3p-dz split-valence wave
      l=2, rc=10.4219 Bohr: d-type Gaussian polarization

Reference energy: -6603.423265

Spin-paired calculation

Convergence criteria:
 Maximum [total energy] change in last 3 cyles: 0.0005 eV / electron
 Maximum integral of absolute [dens]ity change: 0.0001 electrons / valence electron
 Maximum integral of absolute [eigenst]ate change: 4e-08 eV^2 / valence electron
 Maximum number of scf [iter]ations: 333
 (Square brackets indicate name in SCF output, whereas a 'c' in
 the SCF output indicates the quantity has converged.)

Symmetries present (total): 48

  ( 1  0  0)  ( 1  0  0)  ( 1  0  0)  ( 1  0  0)  ( 1  0 -1)  ( 1  0 -1)
  ( 1  0 -1)  ( 1 -1  0)  ( 0  1  0)  ( 0  0  1)  ( 1  0  0)  ( 1 -1  0)
  ( 1 -1  0)  ( 1  0 -1)  ( 0  0  1)  ( 0  1  0)  ( 1 -1  0)  ( 1  0  0)

  ( 1  0 -1)  ( 1  0 -1)  ( 1 -1  0)  ( 1 -1  0)  ( 1 -1  0)  ( 1 -1  0)
  ( 0  1 -1)  ( 0  0 -1)  ( 1  0  0)  ( 1  0 -1)  ( 0 -1  1)  ( 0 -1  0)
  ( 0  0 -1)  ( 0  1 -1)  ( 1  0 -1)  ( 1  0  0)  ( 0 -1  0)  ( 0 -1  1)

  ( 0  1  0)  ( 0  1  0)  ( 0  1  0)  ( 0  1  0)  ( 0  1 -1)  ( 0  1 -1)
  ( 1  0  0)  ( 0  1 -1)  ( 0  0  1)  (-1  1  0)  ( 1  0 -1)  ( 0  1  0)
  ( 0  0  1)  (-1  1  0)  ( 1  0  0)  ( 0  1 -1)  ( 0  0 -1)  (-1  1  0)

  ( 0  1 -1)  ( 0  1 -1)  ( 0  0  1)  ( 0  0  1)  ( 0  0  1)  ( 0  0  1)
  ( 0  0 -1)  (-1  1  0)  ( 1  0  0)  ( 0  1  0)  ( 0 -1  1)  (-1  0  1)
  ( 1  0 -1)  ( 0  1  0)  ( 0  1  0)  ( 1  0  0)  (-1  0  1)  ( 0 -1  1)

  ( 0  0 -1)  ( 0  0 -1)  ( 0  0 -1)  ( 0  0 -1)  ( 0 -1  1)  ( 0 -1  1)
  ( 1  0 -1)  ( 0  1 -1)  ( 0 -1  0)  (-1  0  0)  ( 1 -1  0)  ( 0  0  1)
  ( 0  1 -1)  ( 1  0 -1)  (-1  0  0)  ( 0 -1  0)  ( 0 -1  0)  (-1  0  1)

  ( 0 -1  1)  ( 0 -1  1)  ( 0 -1  0)  ( 0 -1  0)  ( 0 -1  0)  ( 0 -1  0)
  ( 0 -1  0)  (-1  0  1)  ( 1 -1  0)  ( 0  0 -1)  ( 0 -1  1)  (-1  0  0)
  ( 1 -1  0)  ( 0  0  1)  ( 0 -1  1)  (-1  0  0)  ( 1 -1  0)  ( 0  0 -1)

  (-1  1  0)  (-1  1  0)  (-1  1  0)  (-1  1  0)  (-1  0  1)  (-1  0  1)
  ( 0  1  0)  ( 0  1 -1)  (-1  0  1)  (-1  0  0)  ( 0  0  1)  ( 0 -1  1)
  ( 0  1 -1)  ( 0  1  0)  (-1  0  0)  (-1  0  1)  ( 0 -1  1)  ( 0  0  1)

  (-1  0  1)  (-1  0  1)  (-1  0  0)  (-1  0  0)  (-1  0  0)  (-1  0  0)
  (-1  1  0)  (-1  0  0)  ( 0  0 -1)  ( 0 -1  0)  (-1  1  0)  (-1  0  1)
  (-1  0  0)  (-1  1  0)  ( 0 -1  0)  ( 0  0 -1)  (-1  0  1)  (-1  1  0)
Note: your k-points are not as symmetric as your crystal!

2744 k-points: 14 x 14 x 14 Monkhorst-Pack grid
280 k-points in the irreducible part of the Brillouin zone
       k-points in crystal coordinates                weights
   0:     0.03571429    0.03571429   -0.03571429          6/2744
   1:     0.03571429    0.03571429    0.03571429          2/2744
   2:     0.10714286   -0.03571429   -0.03571429          6/2744
   3:     0.10714286    0.03571429   -0.10714286         12/2744
   4:     0.10714286    0.03571429   -0.03571429         12/2744
   5:     0.10714286    0.03571429    0.03571429          6/2744
   6:     0.10714286    0.10714286   -0.10714286          6/2744
   7:     0.10714286    0.10714286   -0.03571429          6/2744
   8:     0.10714286    0.10714286    0.03571429          6/2744
   9:     0.10714286    0.10714286    0.10714286          2/2744
          ...
 279:     0.46428571    0.46428571    0.46428571          2/2744

Wave functions: Plane wave expansion
  Cutoff energy: 400.000 eV
  Number of coefficients (min, max): 283, 303
  Pulay-stress correction: 0.000000 eV/Ang^3 (de/decut=0.000000)
  Using FFTW library
  ScaLapack parameters: grid=1x1, blocksize=None
  Wavefunction extrapolation:
    Improved wavefunction reuse through dual PAW basis 

Occupation numbers: Fermi-Dirac: width=0.1000 eV
 

Eigensolver
   Davidson(niter=2) 

Densities:
  Coarse grid: 14*14*14 grid
  Fine grid: 28*28*28 grid
  Total Charge: 0.000000 

Density mixing:
  Method: separate
  Backend: pulay
  Linear mixing parameter: 0.05
  Mixing with 5 old densities
  Damping of long wave oscillations: 50 

Hamiltonian:
  XC and Coulomb potentials evaluated on a 28*28*28 grid
  Using the PBE Exchange-Correlation functional
  External potential:
    NoExternalPotential
 

XC parameters: PBE with 2 nearest neighbor stencil

Memory estimate:
  Process memory now: 191.55 MiB
  Calculator: 16.99 MiB
    Density: 1.06 MiB
      Arrays: 0.54 MiB
      Localized functions: 0.31 MiB
      Mixer: 0.21 MiB
    Hamiltonian: 0.36 MiB
      Arrays: 0.36 MiB
      XC: 0.00 MiB
      Poisson: 0.00 MiB
      vbar: 0.01 MiB
    Wavefunctions: 15.57 MiB
      Arrays psit_nG: 5.18 MiB
      Eigensolver: 0.04 MiB
      Projections: 0.22 MiB
      Projectors: 8.72 MiB
      PW-descriptor: 1.40 MiB

Total number of cores used: 1

Number of atoms: 1
Number of atomic orbitals: 13
Number of bands in calculation: 4
Number of valence electrons: 3
Bands to converge: occupied

... initialized

Initializing position-dependent things.

Density initialized from atomic densities
Creating initial wave functions:
  4 bands from LCAO basis set

                
                
                
       Al       
                
                
                
                

Positions:
   0 Al     0.000000    0.000000    0.000000    ( 0.0000,  0.0000,  0.0000)

Unit cell:
           periodic     x           y           z      points  spacing
  1. axis:    yes    0.000000    2.001899    2.001899    14     0.1651
  2. axis:    yes    2.001899    0.000000    2.001899    14     0.1651
  3. axis:    yes    2.001899    2.001899    0.000000    14     0.1651

  Lengths:   2.831112   2.831112   2.831112
  Angles:   60.000000  60.000000  60.000000

Effective grid spacing dv^(1/3) = 0.1802

     iter     time        total  log10-change:
                         energy  eigst   dens
iter:   1 11:33:11    -3.728310
iter:   2 11:33:12    -3.728591  -3.84  -0.93
iter:   3 11:33:13    -3.731516  -3.06  -0.95
iter:   4 11:33:14    -3.731560  -4.56  -2.46
iter:   5 11:33:15    -3.731539c -6.37  -2.46
iter:   6 11:33:16    -3.731569c -4.90  -2.30
iter:   7 11:33:17    -3.731571c -6.19  -3.22
iter:   8 11:33:18    -3.731571c -7.52c -3.72
iter:   9 11:33:19    -3.731571c -8.58c -4.04c

Converged after 9 iterations.

Dipole moment: (-0.000000, -0.000000, -0.000000) |e|*Ang

Energy contributions relative to reference atoms: (reference = -6603.423265)

Kinetic:         +4.691314
Potential:       -2.521531
External:        +0.000000
XC:              -5.887319
Entropy (-ST):   -0.014461
Local:           -0.006805
--------------------------
Free energy:     -3.738801
Extrapolated:    -3.731571

Showing only first 2 kpts
 Kpt  Band  Eigenvalues  Occupancy
  0     0     -3.77248    2.00000
  0     1     18.54273    0.00000
  0     2     19.29397    0.00000

  1     0     -3.86669    2.00000
  1     1     19.44492    0.00000
  1     2     20.08073    0.00000


Fermi level: 7.44444

No gap
